
.Version 10.4.5 of ABINIT, released Jul 2025.
.(MPI version, prepared for a x86_64_linux_nvhpc25.7-0 computer) 

.Copyright (C) 1998-2025 ABINIT group . 
 ABINIT comes with ABSOLUTELY NO WARRANTY.
 It is free software, and you are welcome to redistribute it
 under certain conditions (GNU General Public License,
 see ~abinit/COPYING or http://www.gnu.org/copyleft/gpl.txt).

 ABINIT is a project of the Universite Catholique de Louvain,
 Corning Inc. and other collaborators, see ~abinit/doc/developers/contributors.txt .
 Please read https://docs.abinit.org/theory/acknowledgments for suggested
 acknowledgments of the ABINIT effort.
 For more information, see https://www.abinit.org .

.Starting date : Tue 10 Mar 2026.
- ( at 10h25 )
  
- input  file    -> trf2_1.abi
- output file    -> trf2_1.abo
- root for input  files -> trf2_1i
- root for output files -> trf2_1o
 
 Symmetries : space group P1 (#  1); Bravais aP (primitive triclinic)
================================================================================
 Values of the parameters that define the memory need of the present run
     intxc =       0    ionmov =       0      iscf =      -2    lmnmax =       6
     lnmax =       6     mgfft =      30  mpssoang =       3    mqgrid =    3001
     natom =       2  nloc_mem =       1    nspden =       1   nspinor =       1
    nsppol =       1      nsym =       1    n1xccc =    2501    ntypat =       1
    occopt =       7   xclevel =       2
-    mband =          40        mffmem =           1         mkmem =         261
       mpw =        1743          nfft =       27000          nkpt =         261
================================================================================
P This job should need less than                     290.695 Mbytes of memory.
  Rough estimation (10% accuracy) of disk space for files :
_ WF disk file :    277.665 Mbytes ; DEN or POT disk file :      0.208 Mbytes.
================================================================================
 
--------------------------------------------------------------------------------
------------- Echo of variables that govern the present computation ------------
--------------------------------------------------------------------------------
-
- outvars: echo of selected default values
-   iomode0 =  0 , fftalg0 =312 , wfoptalg0 =  0
-
- outvars: echo of global parameters not present in the input file
-  max_nthreads =    1
-
 -outvars: echo values of preprocessed input variables --------
-          iomode           3
            acell      5.9750546617E+00  5.9750546617E+00  5.9750546617E+00 Bohr
              amu      9.59400000E+01
          chkprim           0
             ecut      3.00000000E+01 Hartree
           enunit           1
-          fftalg         312
           getden          -1
             iscf          -2
           istwfk        1    0    0    0    0    0    0    0    0    0
                         0    0    0    0    0    0    0    0    0    0
                         0    0    0    0    0    0    0    0    0    0
                         0    0    0    0    0    0    0    0    0    0
                         0    0    0    0    0    0    0    0    0    0
                         0    0    0    0    0    0    0    0    0    0
                         0    0    0    0    0    0    0    0    0    0
                         0    0    0    0    0    0    0    0    0    0
                         0    0    0    0    0    0    0    0    0    0
                         0    0    0    0    0    0    0    0    0    0
                         0    0    0    0    0    0    0    0    0    0
                         0    0    0    0    0    0    0    0    0    0
                         1    0    0    0    0    0    0    0    0    0
                         0    0    0    0    0    0    0    0    0    0
                         0    0    0    0    0    0    0    0    0    0
                         0    0    0    0    0    0    0    0    0    0
                         0    0    0    0    0    0    0    0    0    0
                         0    0    0    0    0    0    0    0    0    0
                         0    0    0    0    0    0    0    0    0    0
                         0    0    0    0    0    0    0    0    0    0
                         0    0    0    0    0    0    0    0    0    0
                         0    0    0    0    0    0    0    0    0    0
                         0    0    0    0    0    0    0    0    0    1
                         0    0    0    0    0    0    0    0    0    0
                         0    0    0    0    0    0    0    0    0    0
                         0    0    0    0    0    0    0    0    0    0
                         0
              ixc          11
              kpt      0.00000000E+00  0.00000000E+00  0.00000000E+00
                       0.00000000E+00  1.58730200E-02  0.00000000E+00
                       0.00000000E+00  3.17460300E-02  0.00000000E+00
                       0.00000000E+00  4.76190500E-02  0.00000000E+00
                       0.00000000E+00  6.34920600E-02  0.00000000E+00
                       0.00000000E+00  7.93650800E-02  0.00000000E+00
                       0.00000000E+00  9.52381000E-02  0.00000000E+00
                       0.00000000E+00  1.11111110E-01  0.00000000E+00
                       0.00000000E+00  1.26984130E-01  0.00000000E+00
                       0.00000000E+00  1.42857140E-01  0.00000000E+00
                       0.00000000E+00  1.58730160E-01  0.00000000E+00
                       0.00000000E+00  1.74603170E-01  0.00000000E+00
                       0.00000000E+00  1.90476190E-01  0.00000000E+00
                       0.00000000E+00  2.06349210E-01  0.00000000E+00
                       0.00000000E+00  2.22222220E-01  0.00000000E+00
                       0.00000000E+00  2.38095240E-01  0.00000000E+00
                       0.00000000E+00  2.53968250E-01  0.00000000E+00
                       0.00000000E+00  2.69841270E-01  0.00000000E+00
                       0.00000000E+00  2.85714290E-01  0.00000000E+00
                       0.00000000E+00  3.01587300E-01  0.00000000E+00
                       0.00000000E+00  3.17460320E-01  0.00000000E+00
                       0.00000000E+00  3.33333330E-01  0.00000000E+00
                       0.00000000E+00  3.49206350E-01  0.00000000E+00
                       0.00000000E+00  3.65079370E-01  0.00000000E+00
                       0.00000000E+00  3.80952380E-01  0.00000000E+00
                       0.00000000E+00  3.96825400E-01  0.00000000E+00
                       0.00000000E+00  4.12698410E-01  0.00000000E+00
                       0.00000000E+00  4.28571430E-01  0.00000000E+00
                       0.00000000E+00  4.44444440E-01  0.00000000E+00
                       0.00000000E+00  4.60317460E-01  0.00000000E+00
                       0.00000000E+00  4.76190480E-01  0.00000000E+00
                       0.00000000E+00  4.92063490E-01  0.00000000E+00
                       1.11111100E-02 -1.11111100E-02  0.00000000E+00
                      -1.11111100E-02 -1.11111100E-02  0.00000000E+00
                       2.22222200E-02 -2.22222200E-02  0.00000000E+00
                      -2.22222200E-02 -2.22222200E-02  0.00000000E+00
                       3.33333300E-02 -3.33333300E-02  0.00000000E+00
                      -3.33333300E-02 -3.33333300E-02  0.00000000E+00
                       4.44444400E-02 -4.44444400E-02  0.00000000E+00
                      -4.44444400E-02 -4.44444400E-02  0.00000000E+00
                       5.55555600E-02 -5.55555600E-02  0.00000000E+00
                      -5.55555600E-02 -5.55555600E-02  0.00000000E+00
                       6.66666700E-02 -6.66666700E-02  0.00000000E+00
                      -6.66666700E-02 -6.66666700E-02  0.00000000E+00
                       7.77777800E-02 -7.77777800E-02  0.00000000E+00
                      -7.77777800E-02 -7.77777800E-02  0.00000000E+00
                       8.88888900E-02 -8.88888900E-02  0.00000000E+00
                      -8.88888900E-02 -8.88888900E-02  0.00000000E+00
                       1.00000000E-01 -1.00000000E-01  0.00000000E+00
                      -1.00000000E-01 -1.00000000E-01  0.00000000E+00
                       1.11111110E-01 -1.11111110E-01  0.00000000E+00
                      -1.11111110E-01 -1.11111110E-01  0.00000000E+00
                       1.22222220E-01 -1.22222220E-01  0.00000000E+00
                      -1.22222220E-01 -1.22222220E-01  0.00000000E+00
                       1.33333330E-01 -1.33333330E-01  0.00000000E+00
                      -1.33333330E-01 -1.33333330E-01  0.00000000E+00
                       1.44444440E-01 -1.44444440E-01  0.00000000E+00
                      -1.44444440E-01 -1.44444440E-01  0.00000000E+00
                       1.55555560E-01 -1.55555560E-01  0.00000000E+00
                      -1.55555560E-01 -1.55555560E-01  0.00000000E+00
                       1.66666670E-01 -1.66666670E-01  0.00000000E+00
                      -1.66666670E-01 -1.66666670E-01  0.00000000E+00
                       1.77777780E-01 -1.77777780E-01  0.00000000E+00
                      -1.77777780E-01 -1.77777780E-01  0.00000000E+00
                       1.88888890E-01 -1.88888890E-01  0.00000000E+00
                      -1.88888890E-01 -1.88888890E-01  0.00000000E+00
                       2.00000000E-01 -2.00000000E-01  0.00000000E+00
                      -2.00000000E-01 -2.00000000E-01  0.00000000E+00
                       2.11111110E-01 -2.11111110E-01  0.00000000E+00
                      -2.11111110E-01 -2.11111110E-01  0.00000000E+00
                       2.22222220E-01 -2.22222220E-01  0.00000000E+00
                      -2.22222220E-01 -2.22222220E-01  0.00000000E+00
                       2.33333330E-01 -2.33333330E-01  0.00000000E+00
                      -2.33333330E-01 -2.33333330E-01  0.00000000E+00
                       2.44444440E-01 -2.44444440E-01  0.00000000E+00
                      -2.44444440E-01 -2.44444440E-01  0.00000000E+00
                       2.55555560E-01 -2.55555560E-01  0.00000000E+00
                      -2.55555560E-01 -2.55555560E-01  0.00000000E+00
                       2.66666670E-01 -2.66666670E-01  0.00000000E+00
                      -2.66666670E-01 -2.66666670E-01  0.00000000E+00
                       2.77777780E-01 -2.77777780E-01  0.00000000E+00
                      -2.77777780E-01 -2.77777780E-01  0.00000000E+00
                       2.88888890E-01 -2.88888890E-01  0.00000000E+00
                      -2.88888890E-01 -2.88888890E-01  0.00000000E+00
                       3.00000000E-01 -3.00000000E-01  0.00000000E+00
                      -3.00000000E-01 -3.00000000E-01  0.00000000E+00
                       3.11111110E-01 -3.11111110E-01  0.00000000E+00
                      -3.11111110E-01 -3.11111110E-01  0.00000000E+00
                       3.22222220E-01 -3.22222220E-01  0.00000000E+00
                      -3.22222220E-01 -3.22222220E-01  0.00000000E+00
                       3.33333330E-01 -3.33333330E-01  0.00000000E+00
                      -3.33333330E-01 -3.33333330E-01  0.00000000E+00
                       3.44444440E-01 -3.44444440E-01  0.00000000E+00
                      -3.44444440E-01 -3.44444440E-01  0.00000000E+00
                       3.55555560E-01 -3.55555560E-01  0.00000000E+00
                      -3.55555560E-01 -3.55555560E-01  0.00000000E+00
                       3.66666670E-01 -3.66666670E-01  0.00000000E+00
                      -3.66666670E-01 -3.66666670E-01  0.00000000E+00
                       3.77777780E-01 -3.77777780E-01  0.00000000E+00
                      -3.77777780E-01 -3.77777780E-01  0.00000000E+00
                       3.88888890E-01 -3.88888890E-01  0.00000000E+00
                      -3.88888890E-01 -3.88888890E-01  0.00000000E+00
                       4.00000000E-01 -4.00000000E-01  0.00000000E+00
                      -4.00000000E-01 -4.00000000E-01  0.00000000E+00
                       4.11111110E-01 -4.11111110E-01  0.00000000E+00
                      -4.11111110E-01 -4.11111110E-01  0.00000000E+00
                       4.22222220E-01 -4.22222220E-01  0.00000000E+00
                      -4.22222220E-01 -4.22222220E-01  0.00000000E+00
                       4.33333330E-01 -4.33333330E-01  0.00000000E+00
                      -4.33333330E-01 -4.33333330E-01  0.00000000E+00
                       4.44444440E-01 -4.44444440E-01  0.00000000E+00
                      -4.44444440E-01 -4.44444440E-01  0.00000000E+00
                       4.55555560E-01 -4.55555560E-01  0.00000000E+00
                      -4.55555560E-01 -4.55555560E-01  0.00000000E+00
                       4.66666670E-01 -4.66666670E-01  0.00000000E+00
                      -4.66666670E-01 -4.66666670E-01  0.00000000E+00
                       4.77777780E-01 -4.77777780E-01  0.00000000E+00
                      -4.77777780E-01 -4.77777780E-01  0.00000000E+00
                       4.88888890E-01 -4.88888890E-01  0.00000000E+00
                      -4.88888890E-01 -4.88888890E-01  0.00000000E+00
                       5.00000000E-01  5.00000000E-01  0.00000000E+00
                       9.09091000E-03  9.09091000E-03  9.09091000E-03
                       9.09091000E-03 -9.09091000E-03  9.09091000E-03
                       1.81818200E-02  1.81818200E-02  1.81818200E-02
                       1.81818200E-02 -1.81818200E-02  1.81818200E-02
                       2.72727300E-02  2.72727300E-02  2.72727300E-02
                       2.72727300E-02 -2.72727300E-02  2.72727300E-02
                       3.63636400E-02  3.63636400E-02  3.63636400E-02
                       3.63636400E-02 -3.63636400E-02  3.63636400E-02
                       4.54545500E-02  4.54545500E-02  4.54545500E-02
                       4.54545500E-02 -4.54545500E-02  4.54545500E-02
                       5.45454500E-02  5.45454500E-02  5.45454500E-02
                       5.45454500E-02 -5.45454500E-02  5.45454500E-02
                       6.36363600E-02  6.36363600E-02  6.36363600E-02
                       6.36363600E-02 -6.36363600E-02  6.36363600E-02
                       7.27272700E-02  7.27272700E-02  7.27272700E-02
                       7.27272700E-02 -7.27272700E-02  7.27272700E-02
                       8.18181800E-02  8.18181800E-02  8.18181800E-02
                       8.18181800E-02 -8.18181800E-02  8.18181800E-02
                       9.09090900E-02  9.09090900E-02  9.09090900E-02
                       9.09090900E-02 -9.09090900E-02  9.09090900E-02
                       1.00000000E-01  1.00000000E-01  1.00000000E-01
                       1.00000000E-01 -1.00000000E-01  1.00000000E-01
                       1.09090910E-01  1.09090910E-01  1.09090910E-01
                       1.09090910E-01 -1.09090910E-01  1.09090910E-01
                       1.18181820E-01  1.18181820E-01  1.18181820E-01
                       1.18181820E-01 -1.18181820E-01  1.18181820E-01
                       1.27272730E-01  1.27272730E-01  1.27272730E-01
                       1.27272730E-01 -1.27272730E-01  1.27272730E-01
                       1.36363640E-01  1.36363640E-01  1.36363640E-01
                       1.36363640E-01 -1.36363640E-01  1.36363640E-01
                       1.45454550E-01  1.45454550E-01  1.45454550E-01
                       1.45454550E-01 -1.45454550E-01  1.45454550E-01
                       1.54545450E-01  1.54545450E-01  1.54545450E-01
                       1.54545450E-01 -1.54545450E-01  1.54545450E-01
                       1.63636360E-01  1.63636360E-01  1.63636360E-01
                       1.63636360E-01 -1.63636360E-01  1.63636360E-01
                       1.72727270E-01  1.72727270E-01  1.72727270E-01
                       1.72727270E-01 -1.72727270E-01  1.72727270E-01
                       1.81818180E-01  1.81818180E-01  1.81818180E-01
                       1.81818180E-01 -1.81818180E-01  1.81818180E-01
                       1.90909090E-01  1.90909090E-01  1.90909090E-01
                       1.90909090E-01 -1.90909090E-01  1.90909090E-01
                       2.00000000E-01  2.00000000E-01  2.00000000E-01
                       2.00000000E-01 -2.00000000E-01  2.00000000E-01
                       2.09090910E-01  2.09090910E-01  2.09090910E-01
                       2.09090910E-01 -2.09090910E-01  2.09090910E-01
                       2.18181820E-01  2.18181820E-01  2.18181820E-01
                       2.18181820E-01 -2.18181820E-01  2.18181820E-01
                       2.27272730E-01  2.27272730E-01  2.27272730E-01
                       2.27272730E-01 -2.27272730E-01  2.27272730E-01
                       2.36363640E-01  2.36363640E-01  2.36363640E-01
                       2.36363640E-01 -2.36363640E-01  2.36363640E-01
                       2.45454550E-01  2.45454550E-01  2.45454550E-01
                       2.45454550E-01 -2.45454550E-01  2.45454550E-01
                       2.54545450E-01  2.54545450E-01  2.54545450E-01
                       2.54545450E-01 -2.54545450E-01  2.54545450E-01
                       2.63636360E-01  2.63636360E-01  2.63636360E-01
                       2.63636360E-01 -2.63636360E-01  2.63636360E-01
                       2.72727270E-01  2.72727270E-01  2.72727270E-01
                       2.72727270E-01 -2.72727270E-01  2.72727270E-01
                       2.81818180E-01  2.81818180E-01  2.81818180E-01
                       2.81818180E-01 -2.81818180E-01  2.81818180E-01
                       2.90909090E-01  2.90909090E-01  2.90909090E-01
                       2.90909090E-01 -2.90909090E-01  2.90909090E-01
                       3.00000000E-01  3.00000000E-01  3.00000000E-01
                       3.00000000E-01 -3.00000000E-01  3.00000000E-01
                       3.09090910E-01  3.09090910E-01  3.09090910E-01
                       3.09090910E-01 -3.09090910E-01  3.09090910E-01
                       3.18181820E-01  3.18181820E-01  3.18181820E-01
                       3.18181820E-01 -3.18181820E-01  3.18181820E-01
                       3.27272730E-01  3.27272730E-01  3.27272730E-01
                       3.27272730E-01 -3.27272730E-01  3.27272730E-01
                       3.36363640E-01  3.36363640E-01  3.36363640E-01
                       3.36363640E-01 -3.36363640E-01  3.36363640E-01
                       3.45454550E-01  3.45454550E-01  3.45454550E-01
                       3.45454550E-01 -3.45454550E-01  3.45454550E-01
                       3.54545450E-01  3.54545450E-01  3.54545450E-01
                       3.54545450E-01 -3.54545450E-01  3.54545450E-01
                       3.63636360E-01  3.63636360E-01  3.63636360E-01
                       3.63636360E-01 -3.63636360E-01  3.63636360E-01
                       3.72727270E-01  3.72727270E-01  3.72727270E-01
                       3.72727270E-01 -3.72727270E-01  3.72727270E-01
                       3.81818180E-01  3.81818180E-01  3.81818180E-01
                       3.81818180E-01 -3.81818180E-01  3.81818180E-01
                       3.90909090E-01  3.90909090E-01  3.90909090E-01
                       3.90909090E-01 -3.90909090E-01  3.90909090E-01
                       4.00000000E-01  4.00000000E-01  4.00000000E-01
                       4.00000000E-01 -4.00000000E-01  4.00000000E-01
                       4.09090910E-01  4.09090910E-01  4.09090910E-01
                       4.09090910E-01 -4.09090910E-01  4.09090910E-01
                       4.18181820E-01  4.18181820E-01  4.18181820E-01
                       4.18181820E-01 -4.18181820E-01  4.18181820E-01
                       4.27272730E-01  4.27272730E-01  4.27272730E-01
                       4.27272730E-01 -4.27272730E-01  4.27272730E-01
                       4.36363640E-01  4.36363640E-01  4.36363640E-01
                       4.36363640E-01 -4.36363640E-01  4.36363640E-01
                       4.45454550E-01  4.45454550E-01  4.45454550E-01
                       4.45454550E-01 -4.45454550E-01  4.45454550E-01
                       4.54545450E-01  4.54545450E-01  4.54545450E-01
                       4.54545450E-01 -4.54545450E-01  4.54545450E-01
                       4.63636360E-01  4.63636360E-01  4.63636360E-01
                       4.63636360E-01 -4.63636360E-01  4.63636360E-01
                       4.72727270E-01  4.72727270E-01  4.72727270E-01
                       4.72727270E-01 -4.72727270E-01  4.72727270E-01
                       4.81818180E-01  4.81818180E-01  4.81818180E-01
                       4.81818180E-01 -4.81818180E-01  4.81818180E-01
                       4.90909090E-01  4.90909090E-01  4.90909090E-01
                       4.90909090E-01 -4.90909090E-01  4.90909090E-01
                       5.00000000E-01  5.00000000E-01  5.00000000E-01
                       5.00000000E-01  5.00000000E-01  4.84375000E-01
                       5.00000000E-01  5.00000000E-01  4.68750000E-01
                       5.00000000E-01  5.00000000E-01  4.53125000E-01
                       5.00000000E-01  5.00000000E-01  4.37500000E-01
                       5.00000000E-01  5.00000000E-01  4.21875000E-01
                       5.00000000E-01  5.00000000E-01  4.06250000E-01
                       5.00000000E-01  5.00000000E-01  3.90625000E-01
                       5.00000000E-01  5.00000000E-01  3.75000000E-01
                       5.00000000E-01  5.00000000E-01  3.59375000E-01
                       5.00000000E-01  5.00000000E-01  3.43750000E-01
                       5.00000000E-01  5.00000000E-01  3.28125000E-01
                       5.00000000E-01  5.00000000E-01  3.12500000E-01
                       5.00000000E-01  5.00000000E-01  2.96875000E-01
                       5.00000000E-01  5.00000000E-01  2.81250000E-01
                       5.00000000E-01  5.00000000E-01  2.65625000E-01
                       5.00000000E-01  5.00000000E-01  2.50000000E-01
                       5.00000000E-01  5.00000000E-01  2.34375000E-01
                       5.00000000E-01  5.00000000E-01  2.18750000E-01
                       5.00000000E-01  5.00000000E-01  2.03125000E-01
                       5.00000000E-01  5.00000000E-01  1.87500000E-01
                       5.00000000E-01  5.00000000E-01  1.71875000E-01
                       5.00000000E-01  5.00000000E-01  1.56250000E-01
                       5.00000000E-01  5.00000000E-01  1.40625000E-01
                       5.00000000E-01  5.00000000E-01  1.25000000E-01
                       5.00000000E-01  5.00000000E-01  1.09375000E-01
                       5.00000000E-01  5.00000000E-01  9.37500000E-02
                       5.00000000E-01  5.00000000E-01  7.81250000E-02
                       5.00000000E-01  5.00000000E-01  6.25000000E-02
                       5.00000000E-01  5.00000000E-01  4.68750000E-02
                       5.00000000E-01  5.00000000E-01  3.12500000E-02
                       5.00000000E-01  5.00000000E-01  1.56250000E-02
           kptopt           0
P           mkmem         261
            natom           2
            nband          40
           nbdbuf           2
            ngfft          30      30      30
             nkpt         261
            nstep          50
             nsym           1
           ntypat           1
           occopt           7
           prtvol           2
          spgroup           1
           tolwfr      1.00000000E-12
           tsmear      5.00000000E-03 Hartree
            typat      1  1
           xangst      0.0000000000E+00  0.0000000000E+00  0.0000000000E+00
                       1.5809313735E+00  1.5809313735E+00  1.5809313735E+00
            xcart      0.0000000000E+00  0.0000000000E+00  0.0000000000E+00
                       2.9875273308E+00  2.9875273308E+00  2.9875273308E+00
             xred      0.0000000000E+00  0.0000000000E+00  0.0000000000E+00
                       5.0000000000E-01  5.0000000000E-01  5.0000000000E-01
            znucl       42.00000
 
================================================================================
 
 chkinp: Checking input parameters for consistency.
 
================================================================================
== DATASET  1 ==================================================================
-   mpi_nproc: 1, omp_nthreads: 1 (-1 if OMP is not activated)
 

--- !DatasetInfo
iteration_state: {dtset: 1, }
dimensions: {natom: 2, nkpt: 261, mband: 40, nsppol: 1, nspinor: 1, nspden: 1, mpw: 1743, }
cutoff_energies: {ecut:  30.0, pawecutdg:  -1.0, }
electrons: {nelect:   2.80000000E+01, charge:   0.00000000E+00, occopt:   7.00000000E+00, tsmear:   5.00000000E-03, }
meta: {optdriver: 0, ionmov: 0, optcell: 0, iscf: -2, paral_kgb: 0, }
...

 Exchange-correlation functional for the present dataset will be:
  GGA: Perdew-Burke-Ernzerhof functional - ixc=11
 Citation for XC functional:
  J.P.Perdew, K.Burke, M.Ernzerhof, PRL 77, 3865 (1996)
 
 Real(R)+Recip(G) space primitive vectors, cartesian coordinates (Bohr,Bohr^-1):
 R(1)=  5.9750547  0.0000000  0.0000000  G(1)=  0.1673625  0.0000000  0.0000000
 R(2)=  0.0000000  5.9750547  0.0000000  G(2)=  0.0000000  0.1673625  0.0000000
 R(3)=  0.0000000  0.0000000  5.9750547  G(3)=  0.0000000  0.0000000  0.1673625
 Unit cell volume ucvol=  2.1331709E+02 bohr^3
 Angles (23,13,12)=  9.00000000E+01  9.00000000E+01  9.00000000E+01 degrees
 
 getcut: wavevector=  0.0000  0.0000  0.0000  ngfft=  30  30  30
         ecut(hartree)=     30.000   => boxcut(ratio)=   2.03636
 
--- Pseudopotential description ------------------------------------------------
- pspini: atom type   1  psp file is /users/suryab/Project/pseudos/PSP/pseudo_dojo/Mo.psp8
- pspatm: opening atomic psp file    /users/suryab/Project/pseudos/PSP/pseudo_dojo/Mo.psp8
- Mo    ONCVPSP-3.2.3.1  r_core=   1.45541   1.45541   1.35488
- 42.00000  14.00000    170510                znucl, zion, pspdat
    8   11    2    4       600   0.00000      pspcod,pspxc,lmax,lloc,mmax,r2well
    5.99000000000000    3.00000000000000    0.00000000000000   rchrg,fchrg,qchrg
     nproj     2     2     2
     extension_switch     1
  pspatm : epsatm=   15.95693586
         --- l  ekb(1:nproj) -->
             0   13.833287    1.350687
             1    8.015347    1.134034
             2    2.765699    0.969071
 pspatm: atomic psp has been read  and splines computed
 
--------------------------------------------------------------------------------
 
P newkpt: treating     40 bands with npw=    1743 for ikpt=   1 by node    0
P newkpt: treating     40 bands with npw=    1743 for ikpt=   2 by node    0
P newkpt: treating     40 bands with npw=    1723 for ikpt=   3 by node    0
P newkpt: treating     40 bands with npw=    1715 for ikpt=   4 by node    0
P newkpt: treating     40 bands with npw=    1715 for ikpt=   5 by node    0
P newkpt: treating     40 bands with npw=    1703 for ikpt=   6 by node    0
P newkpt: treating     40 bands with npw=    1699 for ikpt=   7 by node    0
P newkpt: treating     40 bands with npw=    1691 for ikpt=   8 by node    0
P newkpt: treating     40 bands with npw=    1683 for ikpt=   9 by node    0
P newkpt: treating     40 bands with npw=    1683 for ikpt=  10 by node    0
P newkpt: treating     40 bands with npw=    1683 for ikpt=  11 by node    0
P newkpt: treating     40 bands with npw=    1683 for ikpt=  12 by node    0
P newkpt: treating     40 bands with npw=    1679 for ikpt=  13 by node    0
P newkpt: treating     40 bands with npw=    1683 for ikpt=  14 by node    0
P newkpt: treating     40 bands with npw=    1683 for ikpt=  15 by node    0
P newkpt: treating     40 bands with npw=    1687 for ikpt=  16 by node    0
P newkpt: treating     40 bands with npw=    1687 for ikpt=  17 by node    0
P newkpt: treating     40 bands with npw=    1687 for ikpt=  18 by node    0
P newkpt: treating     40 bands with npw=    1691 for ikpt=  19 by node    0
P newkpt: treating     40 bands with npw=    1683 for ikpt=  20 by node    0
P newkpt: treating     40 bands with npw=    1675 for ikpt=  21 by node    0
P newkpt: treating     40 bands with npw=    1675 for ikpt=  22 by node    0
P newkpt: treating     40 bands with npw=    1683 for ikpt=  23 by node    0
P newkpt: treating     40 bands with npw=    1691 for ikpt=  24 by node    0
P newkpt: treating     40 bands with npw=    1690 for ikpt=  25 by node    0
P newkpt: treating     40 bands with npw=    1690 for ikpt=  26 by node    0
P newkpt: treating     40 bands with npw=    1678 for ikpt=  27 by node    0
P newkpt: treating     40 bands with npw=    1670 for ikpt=  28 by node    0
P newkpt: treating     40 bands with npw=    1670 for ikpt=  29 by node    0
P newkpt: treating     40 bands with npw=    1670 for ikpt=  30 by node    0
P newkpt: treating     40 bands with npw=    1670 for ikpt=  31 by node    0
P newkpt: treating     40 bands with npw=    1670 for ikpt=  32 by node    0
P newkpt: treating     40 bands with npw=    1743 for ikpt=  33 by node    0
P newkpt: treating     40 bands with npw=    1743 for ikpt=  34 by node    0
P newkpt: treating     40 bands with npw=    1719 for ikpt=  35 by node    0
P newkpt: treating     40 bands with npw=    1719 for ikpt=  36 by node    0
P newkpt: treating     40 bands with npw=    1715 for ikpt=  37 by node    0
P newkpt: treating     40 bands with npw=    1715 for ikpt=  38 by node    0
P newkpt: treating     40 bands with npw=    1703 for ikpt=  39 by node    0
P newkpt: treating     40 bands with npw=    1703 for ikpt=  40 by node    0
P newkpt: treating     40 bands with npw=    1703 for ikpt=  41 by node    0
P newkpt: treating     40 bands with npw=    1703 for ikpt=  42 by node    0
P newkpt: treating     40 bands with npw=    1699 for ikpt=  43 by node    0
P newkpt: treating     40 bands with npw=    1699 for ikpt=  44 by node    0
P newkpt: treating     40 bands with npw=    1697 for ikpt=  45 by node    0
P newkpt: treating     40 bands with npw=    1697 for ikpt=  46 by node    0
P newkpt: treating     40 bands with npw=    1693 for ikpt=  47 by node    0
P newkpt: treating     40 bands with npw=    1693 for ikpt=  48 by node    0
P newkpt: treating     40 bands with npw=    1693 for ikpt=  49 by node    0
P newkpt: treating     40 bands with npw=    1693 for ikpt=  50 by node    0
P newkpt: treating     40 bands with npw=    1697 for ikpt=  51 by node    0
P newkpt: treating     40 bands with npw=    1697 for ikpt=  52 by node    0
P newkpt: treating     40 bands with npw=    1691 for ikpt=  53 by node    0
P newkpt: treating     40 bands with npw=    1691 for ikpt=  54 by node    0
P newkpt: treating     40 bands with npw=    1681 for ikpt=  55 by node    0
P newkpt: treating     40 bands with npw=    1681 for ikpt=  56 by node    0
P newkpt: treating     40 bands with npw=    1681 for ikpt=  57 by node    0
P newkpt: treating     40 bands with npw=    1681 for ikpt=  58 by node    0
P newkpt: treating     40 bands with npw=    1693 for ikpt=  59 by node    0
P newkpt: treating     40 bands with npw=    1693 for ikpt=  60 by node    0
P newkpt: treating     40 bands with npw=    1691 for ikpt=  61 by node    0
P newkpt: treating     40 bands with npw=    1691 for ikpt=  62 by node    0
P newkpt: treating     40 bands with npw=    1693 for ikpt=  63 by node    0
P newkpt: treating     40 bands with npw=    1693 for ikpt=  64 by node    0
P newkpt: treating     40 bands with npw=    1689 for ikpt=  65 by node    0
P newkpt: treating     40 bands with npw=    1689 for ikpt=  66 by node    0
P newkpt: treating     40 bands with npw=    1683 for ikpt=  67 by node    0
P newkpt: treating     40 bands with npw=    1683 for ikpt=  68 by node    0
P newkpt: treating     40 bands with npw=    1682 for ikpt=  69 by node    0
P newkpt: treating     40 bands with npw=    1682 for ikpt=  70 by node    0
P newkpt: treating     40 bands with npw=    1682 for ikpt=  71 by node    0
P newkpt: treating     40 bands with npw=    1682 for ikpt=  72 by node    0
P newkpt: treating     40 bands with npw=    1682 for ikpt=  73 by node    0
P newkpt: treating     40 bands with npw=    1682 for ikpt=  74 by node    0
P newkpt: treating     40 bands with npw=    1688 for ikpt=  75 by node    0
P newkpt: treating     40 bands with npw=    1688 for ikpt=  76 by node    0
P newkpt: treating     40 bands with npw=    1688 for ikpt=  77 by node    0
P newkpt: treating     40 bands with npw=    1688 for ikpt=  78 by node    0
P newkpt: treating     40 bands with npw=    1670 for ikpt=  79 by node    0
P newkpt: treating     40 bands with npw=    1670 for ikpt=  80 by node    0
P newkpt: treating     40 bands with npw=    1662 for ikpt=  81 by node    0
P newkpt: treating     40 bands with npw=    1662 for ikpt=  82 by node    0
P newkpt: treating     40 bands with npw=    1662 for ikpt=  83 by node    0
P newkpt: treating     40 bands with npw=    1662 for ikpt=  84 by node    0
P newkpt: treating     40 bands with npw=    1658 for ikpt=  85 by node    0
P newkpt: treating     40 bands with npw=    1658 for ikpt=  86 by node    0
P newkpt: treating     40 bands with npw=    1666 for ikpt=  87 by node    0
P newkpt: treating     40 bands with npw=    1666 for ikpt=  88 by node    0
P newkpt: treating     40 bands with npw=    1664 for ikpt=  89 by node    0
P newkpt: treating     40 bands with npw=    1664 for ikpt=  90 by node    0
P newkpt: treating     40 bands with npw=    1664 for ikpt=  91 by node    0
P newkpt: treating     40 bands with npw=    1664 for ikpt=  92 by node    0
P newkpt: treating     40 bands with npw=    1662 for ikpt=  93 by node    0
P newkpt: treating     40 bands with npw=    1662 for ikpt=  94 by node    0
P newkpt: treating     40 bands with npw=    1666 for ikpt=  95 by node    0
P newkpt: treating     40 bands with npw=    1666 for ikpt=  96 by node    0
P newkpt: treating     40 bands with npw=    1660 for ikpt=  97 by node    0
P newkpt: treating     40 bands with npw=    1660 for ikpt=  98 by node    0
P newkpt: treating     40 bands with npw=    1654 for ikpt=  99 by node    0
P newkpt: treating     40 bands with npw=    1654 for ikpt= 100 by node    0
P newkpt: treating     40 bands with npw=    1656 for ikpt= 101 by node    0
P newkpt: treating     40 bands with npw=    1656 for ikpt= 102 by node    0
P newkpt: treating     40 bands with npw=    1656 for ikpt= 103 by node    0
P newkpt: treating     40 bands with npw=    1656 for ikpt= 104 by node    0
P newkpt: treating     40 bands with npw=    1660 for ikpt= 105 by node    0
P newkpt: treating     40 bands with npw=    1660 for ikpt= 106 by node    0
P newkpt: treating     40 bands with npw=    1660 for ikpt= 107 by node    0
P newkpt: treating     40 bands with npw=    1660 for ikpt= 108 by node    0
P newkpt: treating     40 bands with npw=    1664 for ikpt= 109 by node    0
P newkpt: treating     40 bands with npw=    1664 for ikpt= 110 by node    0
P newkpt: treating     40 bands with npw=    1660 for ikpt= 111 by node    0
P newkpt: treating     40 bands with npw=    1660 for ikpt= 112 by node    0
P newkpt: treating     40 bands with npw=    1664 for ikpt= 113 by node    0
P newkpt: treating     40 bands with npw=    1664 for ikpt= 114 by node    0
P newkpt: treating     40 bands with npw=    1662 for ikpt= 115 by node    0
P newkpt: treating     40 bands with npw=    1662 for ikpt= 116 by node    0
P newkpt: treating     40 bands with npw=    1662 for ikpt= 117 by node    0
P newkpt: treating     40 bands with npw=    1662 for ikpt= 118 by node    0
P newkpt: treating     40 bands with npw=    1652 for ikpt= 119 by node    0
P newkpt: treating     40 bands with npw=    1652 for ikpt= 120 by node    0
P newkpt: treating     40 bands with npw=    1652 for ikpt= 121 by node    0
P newkpt: treating     40 bands with npw=    1743 for ikpt= 122 by node    0
P newkpt: treating     40 bands with npw=    1743 for ikpt= 123 by node    0
P newkpt: treating     40 bands with npw=    1722 for ikpt= 124 by node    0
P newkpt: treating     40 bands with npw=    1722 for ikpt= 125 by node    0
P newkpt: treating     40 bands with npw=    1710 for ikpt= 126 by node    0
P newkpt: treating     40 bands with npw=    1710 for ikpt= 127 by node    0
P newkpt: treating     40 bands with npw=    1704 for ikpt= 128 by node    0
P newkpt: treating     40 bands with npw=    1704 for ikpt= 129 by node    0
P newkpt: treating     40 bands with npw=    1704 for ikpt= 130 by node    0
P newkpt: treating     40 bands with npw=    1704 for ikpt= 131 by node    0
P newkpt: treating     40 bands with npw=    1704 for ikpt= 132 by node    0
P newkpt: treating     40 bands with npw=    1704 for ikpt= 133 by node    0
P newkpt: treating     40 bands with npw=    1692 for ikpt= 134 by node    0
P newkpt: treating     40 bands with npw=    1692 for ikpt= 135 by node    0
P newkpt: treating     40 bands with npw=    1680 for ikpt= 136 by node    0
P newkpt: treating     40 bands with npw=    1680 for ikpt= 137 by node    0
P newkpt: treating     40 bands with npw=    1686 for ikpt= 138 by node    0
P newkpt: treating     40 bands with npw=    1686 for ikpt= 139 by node    0
P newkpt: treating     40 bands with npw=    1686 for ikpt= 140 by node    0
P newkpt: treating     40 bands with npw=    1686 for ikpt= 141 by node    0
P newkpt: treating     40 bands with npw=    1686 for ikpt= 142 by node    0
P newkpt: treating     40 bands with npw=    1686 for ikpt= 143 by node    0
P newkpt: treating     40 bands with npw=    1689 for ikpt= 144 by node    0
P newkpt: treating     40 bands with npw=    1689 for ikpt= 145 by node    0
P newkpt: treating     40 bands with npw=    1689 for ikpt= 146 by node    0
P newkpt: treating     40 bands with npw=    1689 for ikpt= 147 by node    0
P newkpt: treating     40 bands with npw=    1686 for ikpt= 148 by node    0
P newkpt: treating     40 bands with npw=    1686 for ikpt= 149 by node    0
P newkpt: treating     40 bands with npw=    1686 for ikpt= 150 by node    0
P newkpt: treating     40 bands with npw=    1686 for ikpt= 151 by node    0
P newkpt: treating     40 bands with npw=    1683 for ikpt= 152 by node    0
P newkpt: treating     40 bands with npw=    1683 for ikpt= 153 by node    0
P newkpt: treating     40 bands with npw=    1683 for ikpt= 154 by node    0
P newkpt: treating     40 bands with npw=    1683 for ikpt= 155 by node    0
P newkpt: treating     40 bands with npw=    1683 for ikpt= 156 by node    0
P newkpt: treating     40 bands with npw=    1683 for ikpt= 157 by node    0
P newkpt: treating     40 bands with npw=    1683 for ikpt= 158 by node    0
P newkpt: treating     40 bands with npw=    1683 for ikpt= 159 by node    0
P newkpt: treating     40 bands with npw=    1671 for ikpt= 160 by node    0
P newkpt: treating     40 bands with npw=    1671 for ikpt= 161 by node    0
P newkpt: treating     40 bands with npw=    1674 for ikpt= 162 by node    0
P newkpt: treating     40 bands with npw=    1674 for ikpt= 163 by node    0
P newkpt: treating     40 bands with npw=    1674 for ikpt= 164 by node    0
P newkpt: treating     40 bands with npw=    1674 for ikpt= 165 by node    0
P newkpt: treating     40 bands with npw=    1677 for ikpt= 166 by node    0
P newkpt: treating     40 bands with npw=    1677 for ikpt= 167 by node    0
P newkpt: treating     40 bands with npw=    1677 for ikpt= 168 by node    0
P newkpt: treating     40 bands with npw=    1677 for ikpt= 169 by node    0
P newkpt: treating     40 bands with npw=    1677 for ikpt= 170 by node    0
P newkpt: treating     40 bands with npw=    1677 for ikpt= 171 by node    0
P newkpt: treating     40 bands with npw=    1671 for ikpt= 172 by node    0
P newkpt: treating     40 bands with npw=    1671 for ikpt= 173 by node    0
P newkpt: treating     40 bands with npw=    1677 for ikpt= 174 by node    0
P newkpt: treating     40 bands with npw=    1677 for ikpt= 175 by node    0
P newkpt: treating     40 bands with npw=    1670 for ikpt= 176 by node    0
P newkpt: treating     40 bands with npw=    1670 for ikpt= 177 by node    0
P newkpt: treating     40 bands with npw=    1670 for ikpt= 178 by node    0
P newkpt: treating     40 bands with npw=    1670 for ikpt= 179 by node    0
P newkpt: treating     40 bands with npw=    1676 for ikpt= 180 by node    0
P newkpt: treating     40 bands with npw=    1676 for ikpt= 181 by node    0
P newkpt: treating     40 bands with npw=    1682 for ikpt= 182 by node    0
P newkpt: treating     40 bands with npw=    1682 for ikpt= 183 by node    0
P newkpt: treating     40 bands with npw=    1682 for ikpt= 184 by node    0
P newkpt: treating     40 bands with npw=    1682 for ikpt= 185 by node    0
P newkpt: treating     40 bands with npw=    1673 for ikpt= 186 by node    0
P newkpt: treating     40 bands with npw=    1673 for ikpt= 187 by node    0
P newkpt: treating     40 bands with npw=    1679 for ikpt= 188 by node    0
P newkpt: treating     40 bands with npw=    1679 for ikpt= 189 by node    0
P newkpt: treating     40 bands with npw=    1679 for ikpt= 190 by node    0
P newkpt: treating     40 bands with npw=    1679 for ikpt= 191 by node    0
P newkpt: treating     40 bands with npw=    1685 for ikpt= 192 by node    0
P newkpt: treating     40 bands with npw=    1685 for ikpt= 193 by node    0
P newkpt: treating     40 bands with npw=    1673 for ikpt= 194 by node    0
P newkpt: treating     40 bands with npw=    1673 for ikpt= 195 by node    0
P newkpt: treating     40 bands with npw=    1685 for ikpt= 196 by node    0
P newkpt: treating     40 bands with npw=    1685 for ikpt= 197 by node    0
P newkpt: treating     40 bands with npw=    1676 for ikpt= 198 by node    0
P newkpt: treating     40 bands with npw=    1676 for ikpt= 199 by node    0
P newkpt: treating     40 bands with npw=    1676 for ikpt= 200 by node    0
P newkpt: treating     40 bands with npw=    1676 for ikpt= 201 by node    0
P newkpt: treating     40 bands with npw=    1679 for ikpt= 202 by node    0
P newkpt: treating     40 bands with npw=    1679 for ikpt= 203 by node    0
P newkpt: treating     40 bands with npw=    1679 for ikpt= 204 by node    0
P newkpt: treating     40 bands with npw=    1679 for ikpt= 205 by node    0
P newkpt: treating     40 bands with npw=    1673 for ikpt= 206 by node    0
P newkpt: treating     40 bands with npw=    1673 for ikpt= 207 by node    0
P newkpt: treating     40 bands with npw=    1661 for ikpt= 208 by node    0
P newkpt: treating     40 bands with npw=    1661 for ikpt= 209 by node    0
P newkpt: treating     40 bands with npw=    1661 for ikpt= 210 by node    0
P newkpt: treating     40 bands with npw=    1661 for ikpt= 211 by node    0
P newkpt: treating     40 bands with npw=    1667 for ikpt= 212 by node    0
P newkpt: treating     40 bands with npw=    1667 for ikpt= 213 by node    0
P newkpt: treating     40 bands with npw=    1667 for ikpt= 214 by node    0
P newkpt: treating     40 bands with npw=    1667 for ikpt= 215 by node    0
P newkpt: treating     40 bands with npw=    1667 for ikpt= 216 by node    0
P newkpt: treating     40 bands with npw=    1667 for ikpt= 217 by node    0
P newkpt: treating     40 bands with npw=    1670 for ikpt= 218 by node    0
P newkpt: treating     40 bands with npw=    1670 for ikpt= 219 by node    0
P newkpt: treating     40 bands with npw=    1670 for ikpt= 220 by node    0
P newkpt: treating     40 bands with npw=    1670 for ikpt= 221 by node    0
P newkpt: treating     40 bands with npw=    1658 for ikpt= 222 by node    0
P newkpt: treating     40 bands with npw=    1658 for ikpt= 223 by node    0
P newkpt: treating     40 bands with npw=    1658 for ikpt= 224 by node    0
P newkpt: treating     40 bands with npw=    1658 for ikpt= 225 by node    0
P newkpt: treating     40 bands with npw=    1640 for ikpt= 226 by node    0
P newkpt: treating     40 bands with npw=    1640 for ikpt= 227 by node    0
P newkpt: treating     40 bands with npw=    1640 for ikpt= 228 by node    0
P newkpt: treating     40 bands with npw=    1640 for ikpt= 229 by node    0
P newkpt: treating     40 bands with npw=    1640 for ikpt= 230 by node    0
P newkpt: treating     40 bands with npw=    1640 for ikpt= 231 by node    0
P newkpt: treating     40 bands with npw=    1640 for ikpt= 232 by node    0
P newkpt: treating     40 bands with npw=    1656 for ikpt= 233 by node    0
P newkpt: treating     40 bands with npw=    1656 for ikpt= 234 by node    0
P newkpt: treating     40 bands with npw=    1672 for ikpt= 235 by node    0
P newkpt: treating     40 bands with npw=    1672 for ikpt= 236 by node    0
P newkpt: treating     40 bands with npw=    1680 for ikpt= 237 by node    0
P newkpt: treating     40 bands with npw=    1680 for ikpt= 238 by node    0
P newkpt: treating     40 bands with npw=    1672 for ikpt= 239 by node    0
P newkpt: treating     40 bands with npw=    1672 for ikpt= 240 by node    0
P newkpt: treating     40 bands with npw=    1660 for ikpt= 241 by node    0
P newkpt: treating     40 bands with npw=    1660 for ikpt= 242 by node    0
P newkpt: treating     40 bands with npw=    1668 for ikpt= 243 by node    0
P newkpt: treating     40 bands with npw=    1664 for ikpt= 244 by node    0
P newkpt: treating     40 bands with npw=    1672 for ikpt= 245 by node    0
P newkpt: treating     40 bands with npw=    1672 for ikpt= 246 by node    0
P newkpt: treating     40 bands with npw=    1664 for ikpt= 247 by node    0
P newkpt: treating     40 bands with npw=    1664 for ikpt= 248 by node    0
P newkpt: treating     40 bands with npw=    1672 for ikpt= 249 by node    0
P newkpt: treating     40 bands with npw=    1672 for ikpt= 250 by node    0
P newkpt: treating     40 bands with npw=    1672 for ikpt= 251 by node    0
P newkpt: treating     40 bands with npw=    1672 for ikpt= 252 by node    0
P newkpt: treating     40 bands with npw=    1672 for ikpt= 253 by node    0
P newkpt: treating     40 bands with npw=    1664 for ikpt= 254 by node    0
P newkpt: treating     40 bands with npw=    1672 for ikpt= 255 by node    0
P newkpt: treating     40 bands with npw=    1672 for ikpt= 256 by node    0
P newkpt: treating     40 bands with npw=    1664 for ikpt= 257 by node    0
P newkpt: treating     40 bands with npw=    1664 for ikpt= 258 by node    0
P newkpt: treating     40 bands with npw=    1660 for ikpt= 259 by node    0
P newkpt: treating     40 bands with npw=    1660 for ikpt= 260 by node    0
P newkpt: treating     40 bands with npw=    1652 for ikpt= 261 by node    0
 
================================================================================
 prteigrs : about to open file trf2_1o_EIG
 Non-SCF case, kpt    1 (  0.00000  0.00000  0.00000), residuals and eigenvalues=
  3.87E-13  2.77E-13  2.46E-13  7.96E-13  6.53E-13  5.66E-13  5.06E-13  1.15E-13
  3.05E-13  1.00E-13  8.19E-14  4.07E-13  1.07E-13  4.64E-13  3.88E-13  3.55E-13
  9.55E-13  5.23E-13  5.30E-13  1.18E-13  9.27E-13  2.42E-13  7.93E-13  5.90E-13
  3.61E-13  2.13E-13  7.00E-13  1.95E-13  3.23E-13  3.09E-13  2.79E-13  4.85E-13
  1.71E-13  1.62E-13  9.76E-13  8.54E-13  9.68E-13  7.70E-13  7.26E-13  3.43E-13
 -1.6272E+00 -1.6114E+00 -6.7948E-01 -6.7948E-01 -6.7948E-01 -6.4525E-01
 -6.4525E-01 -6.4525E-01  3.6136E-01  4.2892E-01  4.2892E-01  5.7632E-01
  5.7632E-01  5.7632E-01  6.8574E-01  6.8574E-01  7.6951E-01  7.6951E-01
  7.6951E-01  9.5686E-01  9.5686E-01  9.5686E-01  1.1738E+00  1.1738E+00
  1.1738E+00  1.3409E+00  1.3774E+00  1.3774E+00  1.4853E+00  1.5869E+00
  1.5869E+00  1.7132E+00  1.7132E+00  1.7132E+00  1.9219E+00  1.9219E+00
  1.9219E+00  1.9590E+00  1.9590E+00  1.9590E+00
 Non-SCF case, kpt    2 (  0.00000  0.01587  0.00000), residuals and eigenvalues=
  3.28E-13  2.09E-13  6.39E-13  1.29E-13  6.49E-13  5.12E-13  3.83E-13  4.51E-13
  1.70E-13  1.03E-13  6.99E-14  8.63E-14  6.17E-14  1.16E-13  3.03E-13  3.54E-13
  9.06E-13  6.26E-13  3.52E-13  9.41E-14  7.81E-13  1.26E-13  2.91E-13  4.21E-13
  1.50E-13  1.97E-13  3.55E-13  5.06E-13  6.13E-13  6.91E-13  6.57E-13  7.25E-13
  5.13E-13  1.98E-13  3.18E-13  7.30E-13  8.35E-13  4.06E-13  4.03E-13  7.38E-13
 -1.6272E+00 -1.6114E+00 -6.7949E-01 -6.7946E-01 -6.7946E-01 -6.4530E-01
 -6.4527E-01 -6.4527E-01  3.6157E-01  4.2903E-01  4.2910E-01  5.7630E-01
  5.7630E-01  5.7641E-01  6.8547E-01  6.8584E-01  7.6887E-01  7.6887E-01
  7.6934E-01  9.5626E-01  9.5772E-01  9.5772E-01  1.1740E+00  1.1742E+00
  1.1742E+00  1.3415E+00  1.3771E+00  1.3773E+00  1.4856E+00  1.5837E+00
  1.5873E+00  1.7130E+00  1.7130E+00  1.7160E+00  1.9213E+00  1.9213E+00
  1.9215E+00  1.9584E+00  1.9584E+00  1.9591E+00
 Non-SCF case, kpt    3 (  0.00000  0.03175  0.00000), residuals and eigenvalues=
  2.49E-13  2.01E-13  1.54E-13  7.70E-13  9.57E-13  5.42E-13  8.17E-13  2.14E-13
  2.31E-13  3.97E-13  3.86E-13  1.21E-13  2.16E-13  5.71E-13  2.99E-13  1.40E-13
  5.85E-13  6.38E-13  3.14E-13  9.36E-13  3.86E-13  6.86E-13  1.79E-13  1.79E-13
  9.66E-13  4.51E-13  8.08E-13  8.47E-13  3.77E-13  2.23E-13  4.75E-13  5.38E-13
  2.05E-13  7.67E-13  4.57E-13  9.97E-13  8.39E-13  3.77E-13  9.41E-13  8.65E-13
 -1.6272E+00 -1.6114E+00 -6.7949E-01 -6.7940E-01 -6.7940E-01 -6.4530E-01
 -6.4530E-01 -6.4528E-01  3.6220E-01  4.2935E-01  4.2963E-01  5.7627E-01
  5.7627E-01  5.7668E-01  6.8466E-01  6.8615E-01  7.6700E-01  7.6700E-01
  7.6882E-01  9.5445E-01  9.6027E-01  9.6027E-01  1.1747E+00  1.1752E+00
  1.1752E+00  1.3431E+00  1.3764E+00  1.3770E+00  1.4864E+00  1.5749E+00
  1.5884E+00  1.7123E+00  1.7123E+00  1.7235E+00  1.9196E+00  1.9196E+00
  1.9204E+00  1.9568E+00  1.9568E+00  1.9596E+00
 Non-SCF case, kpt    4 (  0.00000  0.04762  0.00000), residuals and eigenvalues=
  3.33E-13  2.39E-13  8.54E-13  1.66E-13  2.01E-13  7.14E-13  2.21E-13  1.35E-13
  4.70E-13  9.71E-13  5.58E-13  1.22E-13  6.88E-13  1.40E-13  1.41E-13  3.47E-13
  9.66E-13  9.26E-13  5.56E-13  7.30E-13  1.35E-13  2.18E-13  3.42E-13  8.42E-13
  1.62E-13  6.83E-13  4.76E-13  5.45E-13  8.29E-13  8.04E-13  4.96E-13  3.42E-13
  2.40E-13  8.26E-13  6.66E-13  7.02E-13  4.07E-13  4.25E-13  4.66E-13  5.08E-13
 -1.6271E+00 -1.6115E+00 -6.7950E-01 -6.7929E-01 -6.7929E-01 -6.4550E-01
 -6.4536E-01 -6.4536E-01  3.6323E-01  4.2989E-01  4.3051E-01  5.7620E-01
  5.7620E-01  5.7713E-01  6.8331E-01  6.8662E-01  7.6399E-01  7.6399E-01
  7.6796E-01  9.5149E-01  9.6439E-01  9.6439E-01  1.1758E+00  1.1769E+00
  1.1769E+00  1.3453E+00  1.3757E+00  1.3764E+00  1.4877E+00  1.5620E+00
  1.5902E+00  1.7111E+00  1.7111E+00  1.7342E+00  1.9168E+00  1.9168E+00
  1.9184E+00  1.9540E+00  1.9540E+00  1.9603E+00
 Non-SCF case, kpt    5 (  0.00000  0.06349  0.00000), residuals and eigenvalues=
  3.15E-13  2.48E-13  8.18E-13  1.65E-13  1.95E-13  6.40E-13  2.02E-13  1.29E-13
  4.32E-13  8.57E-14  4.13E-13  9.87E-14  6.34E-13  1.05E-13  1.44E-13  3.44E-13
  7.51E-14  8.19E-13  4.93E-13  9.39E-13  1.85E-13  2.36E-13  6.32E-13  1.08E-13
  1.79E-13  9.19E-13  4.71E-13  5.40E-13  7.55E-13  7.17E-13  5.05E-13  3.53E-13
  3.33E-13  4.62E-13  2.38E-13  9.96E-13  1.97E-13  8.17E-13  2.72E-13  8.75E-13
 -1.6270E+00 -1.6115E+00 -6.7951E-01 -6.7913E-01 -6.7913E-01 -6.4583E-01
 -6.4551E-01 -6.4551E-01  3.6465E-01  4.3064E-01  4.3174E-01  5.7611E-01
  5.7611E-01  5.7776E-01  6.8144E-01  6.8727E-01  7.5998E-01  7.5998E-01
  7.6676E-01  9.4745E-01  9.6995E-01  9.6995E-01  1.1773E+00  1.1793E+00
  1.1793E+00  1.3473E+00  1.3757E+00  1.3757E+00  1.4896E+00  1.5466E+00
  1.5928E+00  1.7094E+00  1.7094E+00  1.7465E+00  1.9131E+00  1.9131E+00
  1.9157E+00  1.9501E+00  1.9501E+00  1.9614E+00
 Non-SCF case, kpt    6 (  0.00000  0.07937  0.00000), residuals and eigenvalues=
  1.64E-13  1.82E-13  1.41E-13  1.16E-13  1.85E-13  4.13E-13  3.62E-13  1.09E-13
  3.93E-13  7.85E-14  2.68E-13  3.58E-13  6.65E-13  6.08E-13  1.28E-13  4.42E-13
  1.70E-13  2.90E-13  1.30E-13  1.98E-13  1.06E-13  2.55E-13  3.25E-13  4.97E-13
  1.38E-13  6.52E-13  2.60E-13  4.32E-13  3.51E-13  7.51E-13  4.46E-13  5.66E-13
  4.26E-13  5.48E-13  7.45E-13  6.32E-13  6.37E-13  5.70E-13  5.26E-13  9.21E-13
 -1.6269E+00 -1.6116E+00 -6.7952E-01 -6.7894E-01 -6.7894E-01 -6.4623E-01
 -6.4563E-01 -6.4563E-01  3.6648E-01  4.3161E-01  4.3331E-01  5.7600E-01
  5.7600E-01  5.7857E-01  6.7907E-01  6.8812E-01  7.5515E-01  7.5515E-01
  7.6523E-01  9.4243E-01  9.7679E-01  9.7679E-01  1.1792E+00  1.1823E+00
  1.1823E+00  1.3477E+00  1.3747E+00  1.3778E+00  1.4920E+00  1.5295E+00
  1.5962E+00  1.7071E+00  1.7071E+00  1.7596E+00  1.9087E+00  1.9087E+00
  1.9123E+00  1.9448E+00  1.9448E+00  1.9626E+00
 Non-SCF case, kpt    7 (  0.00000  0.09524  0.00000), residuals and eigenvalues=
  1.47E-13  8.81E-13  1.90E-13  1.07E-13  5.59E-13  5.71E-13  3.58E-13  4.31E-13
  2.53E-13  8.09E-13  1.84E-13  9.86E-13  1.40E-13  2.15E-13  9.32E-13  1.22E-13
  2.36E-13  7.35E-14  1.53E-13  5.15E-13  1.52E-13  5.48E-13  4.46E-13  4.89E-13
  2.88E-13  3.63E-13  5.30E-13  3.09E-13  5.47E-13  6.31E-13  6.27E-13  7.25E-13
  9.88E-13  2.74E-13  3.50E-13  9.53E-13  4.92E-13  9.30E-13  6.56E-13  3.42E-12
 -1.6268E+00 -1.6117E+00 -6.7949E-01 -6.7870E-01 -6.7870E-01 -6.4672E-01
 -6.4585E-01 -6.4585E-01  3.6869E-01  4.3279E-01  4.3520E-01  5.7588E-01
  5.7588E-01  5.7955E-01  6.7621E-01  6.8913E-01  7.4965E-01  7.4965E-01
  7.6339E-01  9.3657E-01  9.8473E-01  9.8473E-01  1.1815E+00  1.1859E+00
  1.1859E+00  1.3457E+00  1.3736E+00  1.3828E+00  1.4950E+00  1.5115E+00
  1.6003E+00  1.7041E+00  1.7041E+00  1.7727E+00  1.9038E+00  1.9038E+00
  1.9081E+00  1.9383E+00  1.9383E+00  1.9640E+00
 Non-SCF case, kpt    8 (  0.00000  0.11111  0.00000), residuals and eigenvalues=
  2.68E-13  4.88E-13  6.38E-13  9.03E-13  1.11E-13  4.48E-13  4.13E-13  7.15E-13
  3.54E-13  1.25E-13  1.16E-13  4.06E-13  9.13E-14  8.74E-14  4.90E-13  6.90E-13
  1.99E-13  4.09E-13  3.37E-13  1.67E-13  5.93E-13  3.82E-13  7.59E-13  2.76E-13
  1.80E-13  3.58E-13  3.13E-13  6.28E-13  5.28E-13  2.29E-13  7.51E-13  8.36E-13
  2.55E-13  6.99E-13  7.02E-13  7.25E-13  8.03E-13  5.81E-13  8.30E-13  4.70E-12
 -1.6266E+00 -1.6118E+00 -6.7944E-01 -6.7840E-01 -6.7840E-01 -6.4729E-01
 -6.4612E-01 -6.4612E-01  3.7128E-01  4.3418E-01  4.3740E-01  5.7576E-01
  5.7576E-01  5.8070E-01  6.7290E-01  6.9032E-01  7.4365E-01  7.4365E-01
  7.6123E-01  9.2995E-01  9.9363E-01  9.9363E-01  1.1842E+00  1.1902E+00
  1.1902E+00  1.3415E+00  1.3722E+00  1.3904E+00  1.4930E+00  1.4984E+00
  1.6051E+00  1.7004E+00  1.7004E+00  1.7854E+00  1.8986E+00  1.8986E+00
  1.9033E+00  1.9305E+00  1.9305E+00  1.9656E+00
 Non-SCF case, kpt    9 (  0.00000  0.12698  0.00000), residuals and eigenvalues=
  2.58E-13  1.52E-13  2.25E-13  5.66E-13  1.34E-13  7.39E-13  7.58E-13  1.87E-13
  5.51E-13  1.46E-13  1.22E-13  8.30E-14  2.07E-13  5.24E-13  7.78E-13  7.26E-14
  1.07E-13  1.92E-13  6.36E-13  7.56E-13  1.49E-13  1.35E-13  1.40E-13  1.38E-13
  1.49E-13  2.81E-13  4.88E-13  3.50E-13  5.94E-13  1.50E-13  9.57E-13  8.30E-13
  9.19E-13  8.98E-13  5.03E-13  6.09E-13  9.95E-13  8.28E-13  4.15E-13  2.48E-11
 -1.6265E+00 -1.6119E+00 -6.7944E-01 -6.7808E-01 -6.7808E-01 -6.4794E-01
 -6.4637E-01 -6.4637E-01  3.7424E-01  4.3579E-01  4.3989E-01  5.7565E-01
  5.7565E-01  5.8203E-01  6.6917E-01  6.9168E-01  7.3724E-01  7.3724E-01
  7.5879E-01  9.2264E-01  1.0033E+00  1.0033E+00  1.1871E+00  1.1952E+00
  1.1952E+00  1.3358E+00  1.3706E+00  1.3999E+00  1.4741E+00  1.5023E+00
  1.6107E+00  1.6959E+00  1.6959E+00  1.7977E+00  1.8935E+00  1.8935E+00
  1.8979E+00  1.9213E+00  1.9213E+00  1.9672E+00
 Non-SCF case, kpt   10 (  0.00000  0.14286  0.00000), residuals and eigenvalues=
  2.25E-13  8.92E-13  1.88E-13  6.55E-13  1.18E-13  6.77E-13  7.51E-13  1.80E-13
  5.17E-13  1.59E-13  1.04E-13  7.51E-14  1.89E-13  5.88E-13  9.23E-13  7.16E-14
  1.20E-13  2.00E-13  4.50E-13  6.44E-13  1.73E-13  1.37E-13  1.38E-13  1.51E-13
  1.43E-13  3.32E-13  4.91E-13  4.17E-13  9.99E-13  1.53E-13  2.95E-13  2.86E-13
  9.09E-13  4.57E-13  6.96E-13  7.96E-13  4.00E-13  8.02E-13  3.74E-13  1.98E-10
 -1.6263E+00 -1.6121E+00 -6.7944E-01 -6.7772E-01 -6.7772E-01 -6.4867E-01
 -6.4671E-01 -6.4671E-01  3.7756E-01  4.3761E-01  4.4265E-01  5.7555E-01
  5.7555E-01  5.8354E-01  6.6503E-01  6.9319E-01  7.3057E-01  7.3057E-01
  7.5606E-01  9.1481E-01  1.0137E+00  1.0137E+00  1.1904E+00  1.2007E+00
  1.2007E+00  1.3290E+00  1.3689E+00  1.4109E+00  1.4552E+00  1.5067E+00
  1.6170E+00  1.6906E+00  1.6906E+00  1.8092E+00  1.8886E+00  1.8886E+00
  1.8920E+00  1.9107E+00  1.9107E+00  1.9688E+00
 Non-SCF case, kpt   11 (  0.00000  0.15873  0.00000), residuals and eigenvalues=
  1.86E-13  1.89E-13  3.81E-13  9.83E-13  2.04E-13  1.25E-13  1.25E-13  1.28E-13
  6.03E-13  9.85E-14  1.01E-13  9.17E-14  2.33E-13  6.89E-13  6.64E-13  5.79E-13
  5.66E-13  6.44E-14  9.56E-14  8.52E-14  1.60E-13  4.24E-13  2.37E-13  5.61E-13
  3.99E-13  2.81E-13  9.63E-13  9.50E-13  4.78E-13  5.49E-13  7.97E-13  2.97E-13
  9.34E-13  3.22E-13  6.33E-13  4.73E-13  9.50E-13  8.82E-13  5.21E-13  9.67E-10
 -1.6261E+00 -1.6122E+00 -6.7940E-01 -6.7729E-01 -6.7729E-01 -6.4952E-01
 -6.4711E-01 -6.4711E-01  3.8121E-01  4.3964E-01  4.4567E-01  5.7548E-01
  5.7548E-01  5.8521E-01  6.6053E-01  6.9485E-01  7.2374E-01  7.2374E-01
  7.5307E-01  9.0654E-01  1.0248E+00  1.0248E+00  1.1939E+00  1.2067E+00
  1.2067E+00  1.3215E+00  1.3670E+00  1.4231E+00  1.4363E+00  1.5115E+00
  1.6240E+00  1.6845E+00  1.6845E+00  1.8199E+00  1.8840E+00  1.8840E+00
  1.8854E+00  1.8988E+00  1.8988E+00  1.9705E+00
 Non-SCF case, kpt   12 (  0.00000  0.17460  0.00000), residuals and eigenvalues=
  1.73E-13  1.72E-13  3.91E-13  1.04E-13  1.94E-13  9.79E-13  9.20E-13  1.28E-13
  1.65E-13  9.93E-13  8.73E-14  4.36E-13  8.03E-13  6.57E-13  2.01E-13  7.52E-13
  6.82E-13  8.95E-13  9.85E-14  9.58E-14  1.15E-13  5.76E-13  2.70E-13  5.17E-13
  3.16E-13  3.88E-13  1.31E-13  4.03E-13  4.61E-13  9.52E-13  4.79E-13  2.40E-13
  8.35E-13  6.95E-13  8.67E-13  7.36E-13  9.64E-13  8.99E-13  5.80E-13  3.58E-09
 -1.6259E+00 -1.6124E+00 -6.7937E-01 -6.7685E-01 -6.7685E-01 -6.5037E-01
 -6.4752E-01 -6.4752E-01  3.8518E-01  4.4188E-01  4.4890E-01  5.7545E-01
  5.7545E-01  5.8705E-01  6.5570E-01  6.9666E-01  7.1679E-01  7.1679E-01
  7.4984E-01  8.9793E-01  1.0363E+00  1.0363E+00  1.1977E+00  1.2133E+00
  1.2133E+00  1.3133E+00  1.3648E+00  1.4176E+00  1.4362E+00  1.5168E+00
  1.6317E+00  1.6775E+00  1.6775E+00  1.8299E+00  1.8785E+00  1.8799E+00
  1.8799E+00  1.8858E+00  1.8858E+00  1.9721E+00
 Non-SCF case, kpt   13 (  0.00000  0.19048  0.00000), residuals and eigenvalues=
  2.28E-13  6.91E-13  1.02E-13  1.10E-13  1.42E-13  1.63E-13  1.08E-13  7.75E-13
  2.27E-13  8.93E-13  6.33E-13  1.51E-13  4.55E-14  2.81E-13  4.23E-13  4.12E-13
  5.65E-13  4.48E-13  2.80E-13  7.95E-14  1.91E-13  7.21E-13  5.33E-13  4.37E-13
  1.53E-13  9.96E-13  6.24E-13  7.34E-13  1.78E-13  3.59E-13  2.70E-13  4.87E-13
  8.76E-13  9.92E-13  5.03E-13  3.40E-13  9.02E-13  9.51E-13  9.52E-13  2.99E-08
 -1.6256E+00 -1.6126E+00 -6.7933E-01 -6.7637E-01 -6.7637E-01 -6.5125E-01
 -6.4797E-01 -6.4797E-01  3.8948E-01  4.4432E-01  4.5233E-01  5.7548E-01
  5.7548E-01  5.8907E-01  6.5057E-01  6.9860E-01  7.0981E-01  7.0981E-01
  7.4637E-01  8.8907E-01  1.0483E+00  1.0483E+00  1.2017E+00  1.2204E+00
  1.2204E+00  1.3047E+00  1.3625E+00  1.3992E+00  1.4501E+00  1.5225E+00
  1.6401E+00  1.6697E+00  1.6697E+00  1.8391E+00  1.8711E+00  1.8717E+00
  1.8717E+00  1.8765E+00  1.8765E+00  1.9735E+00
 Non-SCF case, kpt   14 (  0.00000  0.20635  0.00000), residuals and eigenvalues=
  1.41E-13  4.56E-13  9.43E-13  1.22E-13  5.98E-13  7.59E-13  7.33E-13  1.36E-13
  4.44E-13  1.80E-13  1.19E-13  7.49E-14  8.35E-13  2.79E-13  6.02E-13  6.94E-14
  7.32E-13  1.64E-13  6.18E-13  8.11E-13  1.84E-13  1.65E-13  1.86E-13  3.70E-13
  6.22E-13  2.09E-13  6.17E-13  2.51E-13  3.01E-13  1.61E-13  3.71E-13  1.65E-13
  3.66E-13  7.20E-13  6.70E-13  4.52E-13  9.74E-13  8.72E-13  9.41E-13  9.13E-08
 -1.6254E+00 -1.6128E+00 -6.7931E-01 -6.7586E-01 -6.7586E-01 -6.5221E-01
 -6.4845E-01 -6.4845E-01  3.9404E-01  4.4697E-01  4.5590E-01  5.7558E-01
  5.7558E-01  5.9125E-01  6.4517E-01  7.0066E-01  7.0283E-01  7.0283E-01
  7.4270E-01  8.8003E-01  1.0606E+00  1.0606E+00  1.2058E+00  1.2280E+00
  1.2280E+00  1.2957E+00  1.3600E+00  1.3811E+00  1.4648E+00  1.5286E+00
  1.6493E+00  1.6610E+00  1.6610E+00  1.8476E+00  1.8568E+00  1.8568E+00
  1.8633E+00  1.8738E+00  1.8738E+00  1.9748E+00
 Non-SCF case, kpt   15 (  0.00000  0.22222  0.00000), residuals and eigenvalues=
  1.38E-13  5.12E-13  8.51E-13  1.13E-13  6.02E-13  7.31E-13  7.18E-13  1.27E-13
  3.59E-13  1.74E-13  1.12E-13  7.69E-14  7.55E-13  3.02E-13  5.29E-13  4.10E-13
  9.88E-14  8.36E-13  6.36E-13  8.80E-13  1.84E-13  1.42E-13  2.09E-13  3.78E-13
  5.89E-13  8.56E-13  4.74E-13  2.25E-13  6.15E-13  2.50E-13  2.15E-13  9.69E-13
  1.44E-13  5.01E-13  8.59E-13  5.65E-13  5.56E-13  7.06E-13  5.32E-13  3.75E-07
 -1.6251E+00 -1.6130E+00 -6.7923E-01 -6.7531E-01 -6.7531E-01 -6.5322E-01
 -6.4897E-01 -6.4897E-01  3.9887E-01  4.4982E-01  4.5960E-01  5.7576E-01
  5.7576E-01  5.9359E-01  6.3954E-01  6.9591E-01  6.9591E-01  7.0282E-01
  7.3883E-01  8.7091E-01  1.0733E+00  1.0733E+00  1.2101E+00  1.2359E+00
  1.2359E+00  1.2866E+00  1.3574E+00  1.3634E+00  1.4801E+00  1.5350E+00
  1.6517E+00  1.6517E+00  1.6591E+00  1.8412E+00  1.8412E+00  1.8552E+00
  1.8555E+00  1.8719E+00  1.8719E+00  1.9760E+00
 Non-SCF case, kpt   16 (  0.00000  0.23810  0.00000), residuals and eigenvalues=
  1.67E-13  2.61E-13  3.19E-13  9.36E-13  6.45E-13  7.81E-13  7.88E-13  4.84E-13
  2.28E-13  8.05E-14  6.40E-14  1.20E-13  5.37E-14  7.51E-14  2.43E-13  1.95E-13
  9.41E-13  4.52E-13  7.64E-13  8.72E-13  1.66E-13  6.52E-13  5.78E-13  3.19E-13
  4.65E-13  1.81E-13  3.64E-13  9.81E-13  3.67E-13  6.13E-13  6.77E-13  8.18E-13
  8.12E-13  4.30E-13  8.09E-13  5.08E-13  8.83E-13  5.73E-13  5.68E-13  1.82E-06
 -1.6248E+00 -1.6132E+00 -6.7909E-01 -6.7473E-01 -6.7473E-01 -6.5429E-01
 -6.4956E-01 -6.4956E-01  4.0394E-01  4.5288E-01  4.6338E-01  5.7602E-01
  5.7602E-01  5.9609E-01  6.3370E-01  6.8908E-01  6.8908E-01  7.0509E-01
  7.3478E-01  8.6179E-01  1.0864E+00  1.0864E+00  1.2145E+00  1.2443E+00
  1.2443E+00  1.2774E+00  1.3463E+00  1.3546E+00  1.4961E+00  1.5418E+00
  1.6417E+00  1.6417E+00  1.6696E+00  1.8249E+00  1.8249E+00  1.8468E+00
  1.8627E+00  1.8706E+00  1.8706E+00  1.9770E+00
 Non-SCF case, kpt   17 (  0.00000  0.25397  0.00000), residuals and eigenvalues=
  1.93E-13  2.98E-13  3.39E-13  8.96E-13  6.31E-13  7.52E-13  7.64E-13  4.62E-13
  2.42E-13  8.14E-14  5.92E-14  8.89E-14  9.88E-13  7.26E-14  2.56E-13  2.04E-13
  8.55E-13  8.23E-14  7.77E-13  8.96E-13  1.53E-13  7.24E-13  7.05E-13  2.87E-13
  4.59E-13  7.35E-13  2.43E-13  8.72E-13  5.53E-13  7.16E-13  5.45E-13  8.28E-13
  9.86E-13  2.45E-13  3.77E-13  4.17E-13  7.63E-13  7.68E-13  1.48E-12  9.65E-07
 -1.6245E+00 -1.6134E+00 -6.7896E-01 -6.7412E-01 -6.7412E-01 -6.5536E-01
 -6.5014E-01 -6.5014E-01  4.0922E-01  4.5613E-01  4.6719E-01  5.7639E-01
  5.7639E-01  5.9876E-01  6.2770E-01  6.8236E-01  6.8236E-01  7.0743E-01
  7.3058E-01  8.5269E-01  1.0996E+00  1.0996E+00  1.2190E+00  1.2529E+00
  1.2529E+00  1.2682E+00  1.3297E+00  1.3517E+00  1.5125E+00  1.5489E+00
  1.6312E+00  1.6312E+00  1.6807E+00  1.8082E+00  1.8082E+00  1.8381E+00
  1.8693E+00  1.8700E+00  1.8700E+00  1.9777E+00
 Non-SCF case, kpt   18 (  0.00000  0.26984  0.00000), residuals and eigenvalues=
  2.16E-13  3.23E-13  3.79E-13  8.39E-13  6.16E-13  7.02E-13  6.87E-13  1.95E-13
  2.47E-13  7.75E-14  4.93E-14  7.45E-14  4.35E-14  7.05E-14  2.75E-13  1.89E-13
  8.88E-13  7.78E-14  8.26E-13  9.67E-13  1.40E-13  9.53E-13  8.35E-13  5.46E-13
  2.85E-13  4.60E-13  1.77E-13  8.69E-13  9.83E-13  2.30E-13  3.23E-13  8.00E-13
  5.39E-13  6.43E-13  8.53E-13  9.30E-13  9.46E-13  9.67E-13  7.06E-13  5.84E-06
 -1.6242E+00 -1.6137E+00 -6.7880E-01 -6.7348E-01 -6.7348E-01 -6.5646E-01
 -6.5075E-01 -6.5075E-01  4.1469E-01  4.5958E-01  4.7099E-01  5.7688E-01
  5.7688E-01  6.0158E-01  6.2155E-01  6.7579E-01  6.7579E-01  7.0984E-01
  7.2624E-01  8.4369E-01  1.1131E+00  1.1131E+00  1.2236E+00  1.2590E+00
  1.2618E+00  1.2618E+00  1.3137E+00  1.3486E+00  1.5293E+00  1.5563E+00
  1.6203E+00  1.6203E+00  1.6926E+00  1.7912E+00  1.7912E+00  1.8291E+00
  1.8701E+00  1.8701E+00  1.8754E+00  1.9782E+00
 Non-SCF case, kpt   19 (  0.00000  0.28571  0.00000), residuals and eigenvalues=
  3.43E-13  2.49E-13  5.30E-13  8.17E-13  8.08E-13  5.87E-13  1.35E-13  3.34E-13
  6.49E-14  8.97E-13  1.44E-13  7.66E-13  1.04E-13  7.09E-14  3.78E-13  7.78E-13
  9.70E-14  1.88E-13  1.93E-13  2.10E-13  4.83E-13  1.22E-13  5.66E-13  5.50E-13
  6.70E-13  5.11E-13  2.57E-13  2.30E-13  3.07E-13  6.88E-13  2.83E-13  2.53E-13
  4.97E-13  4.73E-13  4.23E-13  4.20E-13  7.26E-13  4.08E-13  5.48E-13  1.04E-05
 -1.6239E+00 -1.6140E+00 -6.7862E-01 -6.7282E-01 -6.7282E-01 -6.5761E-01
 -6.5138E-01 -6.5138E-01  4.2031E-01  4.6323E-01  4.7471E-01  5.7749E-01
  5.7749E-01  6.0456E-01  6.1528E-01  6.6937E-01  6.6937E-01  7.1230E-01
  7.2177E-01  8.3482E-01  1.1267E+00  1.1267E+00  1.2283E+00  1.2500E+00
  1.2708E+00  1.2708E+00  1.2984E+00  1.3453E+00  1.5466E+00  1.5641E+00
  1.6093E+00  1.6093E+00  1.7050E+00  1.7739E+00  1.7739E+00  1.8200E+00
  1.8708E+00  1.8708E+00  1.8809E+00  1.9785E+00
 Non-SCF case, kpt   20 (  0.00000  0.30159  0.00000), residuals and eigenvalues=
  5.94E-13  1.83E-13  3.07E-13  4.32E-13  2.36E-13  3.58E-13  5.03E-13  1.25E-13
  8.31E-13  8.08E-14  6.83E-14  3.12E-13  4.75E-13  6.40E-13  1.51E-13  3.43E-13
  9.46E-14  9.79E-14  7.93E-13  9.93E-13  1.69E-13  1.70E-13  2.36E-13  7.33E-13
  6.26E-13  3.07E-13  1.83E-13  2.29E-13  7.50E-13  6.26E-13  3.80E-13  7.41E-13
  8.60E-13  2.44E-13  8.82E-13  7.59E-13  4.10E-13  8.82E-13  2.59E-12  2.71E-05
 -1.6235E+00 -1.6143E+00 -6.7839E-01 -6.7210E-01 -6.7210E-01 -6.5871E-01
 -6.5205E-01 -6.5205E-01  4.2606E-01  4.6707E-01  4.7830E-01  5.7825E-01
  5.7825E-01  6.0768E-01  6.0892E-01  6.6314E-01  6.6314E-01  7.1482E-01
  7.1721E-01  8.2618E-01  1.1406E+00  1.1406E+00  1.2330E+00  1.2413E+00
  1.2798E+00  1.2798E+00  1.2839E+00  1.3420E+00  1.5643E+00  1.5721E+00
  1.5982E+00  1.5982E+00  1.7181E+00  1.7565E+00  1.7565E+00  1.8107E+00
  1.8721E+00  1.8721E+00  1.8860E+00  1.9786E+00
 Non-SCF case, kpt   21 (  0.00000  0.31746  0.00000), residuals and eigenvalues=
  2.65E-13  4.36E-13  1.28E-13  4.48E-13  1.05E-13  4.12E-13  6.46E-13  1.10E-13
  1.26E-13  8.53E-14  1.70E-13  2.75E-13  1.44E-13  6.22E-13  1.18E-13  2.09E-13
  2.53E-13  2.29E-13  2.25E-13  8.89E-14  6.67E-13  3.92E-13  7.42E-13  2.77E-13
  5.03E-13  6.91E-13  2.95E-13  1.92E-13  8.04E-13  7.00E-13  9.24E-13  8.43E-13
  4.99E-13  5.85E-13  1.80E-13  5.19E-13  4.71E-13  3.87E-13  7.69E-13  7.60E-06
 -1.6232E+00 -1.6145E+00 -6.7807E-01 -6.7136E-01 -6.7136E-01 -6.5985E-01
 -6.5275E-01 -6.5275E-01  4.3187E-01  4.7110E-01  4.8170E-01  5.7916E-01
  5.7916E-01  6.0248E-01  6.1095E-01  6.5710E-01  6.5710E-01  7.1255E-01
  7.1736E-01  8.1779E-01  1.1545E+00  1.1545E+00  1.2329E+00  1.2377E+00
  1.2701E+00  1.2887E+00  1.2887E+00  1.3385E+00  1.5803E+00  1.5823E+00
  1.5872E+00  1.5872E+00  1.7318E+00  1.7390E+00  1.7390E+00  1.8012E+00
  1.8740E+00  1.8740E+00  1.8904E+00  1.9783E+00
 Non-SCF case, kpt   22 (  0.00000  0.33333  0.00000), residuals and eigenvalues=
  2.38E-13  2.72E-13  1.18E-13  5.13E-13  1.19E-13  4.82E-13  6.77E-13  1.17E-13
  1.60E-13  6.05E-14  8.11E-13  3.05E-13  1.45E-13  5.17E-13  1.11E-13  1.93E-13
  2.44E-13  1.74E-13  2.25E-13  8.97E-14  9.99E-13  5.30E-13  8.07E-13  3.59E-13
  5.67E-13  9.19E-13  3.75E-13  1.95E-13  7.29E-13  5.13E-13  8.04E-13  2.96E-13
  3.63E-13  9.37E-13  6.32E-13  3.19E-13  6.88E-13  5.22E-13  3.81E-12  1.08E-05
 -1.6228E+00 -1.6149E+00 -6.7776E-01 -6.7062E-01 -6.7062E-01 -6.6099E-01
 -6.5346E-01 -6.5346E-01  4.3771E-01  4.7531E-01  4.8485E-01  5.8023E-01
  5.8023E-01  5.9600E-01  6.1436E-01  6.5124E-01  6.5124E-01  7.0783E-01
  7.1991E-01  8.0970E-01  1.1685E+00  1.1685E+00  1.2249E+00  1.2425E+00
  1.2572E+00  1.2973E+00  1.2973E+00  1.3349E+00  1.5766E+00  1.5766E+00
  1.5888E+00  1.6006E+00  1.7216E+00  1.7216E+00  1.7460E+00  1.7916E+00
  1.8763E+00  1.8763E+00  1.8941E+00  1.9779E+00
 Non-SCF case, kpt   23 (  0.00000  0.34921  0.00000), residuals and eigenvalues=
  1.65E-13  2.72E-13  3.68E-13  3.86E-13  2.28E-13  2.80E-13  5.70E-13  1.31E-13
  6.92E-13  6.98E-14  8.13E-13  6.96E-13  4.19E-13  1.58E-13  9.54E-14  4.47E-13
  7.88E-13  5.79E-13  4.66E-13  8.16E-14  3.70E-13  4.88E-13  2.01E-13  8.46E-13
  2.10E-13  1.66E-13  4.36E-13  6.95E-13  6.64E-13  4.32E-13  9.99E-13  2.44E-13
  9.61E-13  5.68E-13  4.99E-13  6.39E-13  6.76E-13  5.87E-13  9.60E-13  3.79E-06
 -1.6224E+00 -1.6152E+00 -6.7748E-01 -6.6986E-01 -6.6986E-01 -6.6213E-01
 -6.5420E-01 -6.5420E-01  4.4356E-01  4.7970E-01  4.8764E-01  5.8147E-01
  5.8147E-01  5.8950E-01  6.1791E-01  6.4560E-01  6.4560E-01  7.0305E-01
  7.2248E-01  8.0194E-01  1.1825E+00  1.1825E+00  1.2174E+00  1.2452E+00
  1.2473E+00  1.3054E+00  1.3054E+00  1.3312E+00  1.5667E+00  1.5667E+00
  1.5974E+00  1.6192E+00  1.7042E+00  1.7042E+00  1.7608E+00  1.7819E+00
  1.8791E+00  1.8791E+00  1.8969E+00  1.9790E+00
 Non-SCF case, kpt   24 (  0.00000  0.36508  0.00000), residuals and eigenvalues=
  4.78E-13  1.74E-13  3.47E-13  9.99E-13  5.27E-13  6.55E-13  2.98E-13  8.42E-13
  2.58E-13  2.03E-13  7.66E-13  6.01E-13  8.43E-14  6.51E-14  7.60E-14  7.35E-14
  6.27E-14  2.66E-13  2.07E-13  2.24E-13  4.16E-13  6.15E-13  5.13E-13  9.93E-13
  4.99E-13  3.27E-13  2.11E-13  3.57E-13  5.45E-13  6.01E-13  8.22E-13  4.37E-13
  8.87E-13  5.26E-13  6.46E-13  4.89E-13  7.20E-13  7.57E-13  4.52E-12  1.14E-05
 -1.6220E+00 -1.6155E+00 -6.7710E-01 -6.6911E-01 -6.6911E-01 -6.6326E-01
 -6.5496E-01 -6.5496E-01  4.4934E-01  4.8426E-01  4.9008E-01  5.8290E-01
  5.8290E-01  5.8298E-01  6.2159E-01  6.4016E-01  6.4016E-01  6.9822E-01
  7.2506E-01  7.9456E-01  1.1965E+00  1.1965E+00  1.2104E+00  1.2342E+00
  1.2520E+00  1.3127E+00  1.3127E+00  1.3274E+00  1.5578E+00  1.5578E+00
  1.6063E+00  1.6380E+00  1.6871E+00  1.6871E+00  1.7721E+00  1.7761E+00
  1.8822E+00  1.8822E+00  1.8984E+00  1.9733E+00
 Non-SCF case, kpt   25 (  0.00000  0.38095  0.00000), residuals and eigenvalues=
  3.70E-13  2.83E-13  1.09E-13  6.25E-13  3.98E-13  5.36E-13  4.30E-13  7.97E-13
  7.03E-13  7.25E-13  7.03E-13  5.20E-13  1.43E-13  4.17E-13  3.45E-13  6.78E-14
  4.13E-13  2.68E-13  9.07E-14  7.95E-13  3.00E-13  2.35E-13  2.52E-13  6.77E-13
  5.09E-13  3.14E-13  2.08E-13  6.87E-13  8.82E-13  2.89E-13  6.84E-13  8.63E-13
  6.99E-13  3.82E-13  2.13E-13  2.07E-13  8.43E-13  2.39E-13  5.23E-12  7.09E-06
 -1.6217E+00 -1.6159E+00 -6.7665E-01 -6.6831E-01 -6.6831E-01 -6.6437E-01
 -6.5574E-01 -6.5574E-01  4.5503E-01  4.8901E-01  4.9207E-01  5.7648E-01
  5.8451E-01  5.8451E-01  6.2541E-01  6.3495E-01  6.3495E-01  6.9337E-01
  7.2766E-01  7.8762E-01  1.2042E+00  1.2104E+00  1.2104E+00  1.2242E+00
  1.2568E+00  1.3188E+00  1.3188E+00  1.3235E+00  1.5501E+00  1.5501E+00
  1.6154E+00  1.6570E+00  1.6702E+00  1.6702E+00  1.7622E+00  1.7919E+00
  1.8858E+00  1.8858E+00  1.8980E+00  1.9667E+00
 Non-SCF case, kpt   26 (  0.00000  0.39683  0.00000), residuals and eigenvalues=
  3.93E-13  3.06E-13  1.09E-13  5.25E-13  9.20E-13  5.39E-13  4.91E-13  7.24E-13
  5.66E-13  6.02E-13  8.93E-13  8.68E-13  1.35E-13  5.43E-13  6.41E-13  9.97E-13
  6.62E-13  2.60E-13  8.42E-14  9.07E-13  3.60E-13  6.65E-13  2.72E-13  2.64E-13
  6.48E-13  6.92E-13  3.79E-13  4.98E-13  7.98E-13  5.96E-13  8.02E-13  4.71E-13
  3.75E-13  4.49E-13  1.74E-13  3.80E-13  7.00E-13  5.74E-13  6.03E-13  3.32E-06
 -1.6213E+00 -1.6162E+00 -6.7615E-01 -6.6749E-01 -6.6749E-01 -6.6547E-01
 -6.5654E-01 -6.5654E-01  4.6055E-01  4.9356E-01  4.9391E-01  5.7000E-01
  5.8632E-01  5.8632E-01  6.2934E-01  6.2997E-01  6.2997E-01  6.8851E-01
  7.3027E-01  7.8111E-01  1.1986E+00  1.2152E+00  1.2242E+00  1.2242E+00
  1.2615E+00  1.3195E+00  1.3236E+00  1.3236E+00  1.5442E+00  1.5442E+00
  1.6246E+00  1.6537E+00  1.6537E+00  1.6761E+00  1.7522E+00  1.8082E+00
  1.8897E+00  1.8897E+00  1.8948E+00  1.9604E+00
 Non-SCF case, kpt   27 (  0.00000  0.41270  0.00000), residuals and eigenvalues=
  3.96E-13  4.06E-13  1.42E-13  1.61E-13  7.26E-13  1.83E-13  7.52E-13  5.36E-13
  2.27E-13  7.46E-14  3.70E-13  1.99E-13  5.07E-14  7.36E-13  1.12E-13  8.33E-13
  3.89E-13  4.57E-13  6.04E-13  1.03E-13  1.39E-13  3.95E-13  7.36E-13  4.56E-13
  7.34E-13  6.41E-13  7.90E-13  5.19E-13  7.25E-13  6.13E-13  4.64E-13  9.48E-13
  2.01E-13  4.99E-13  8.07E-13  6.48E-13  8.61E-13  4.75E-13  2.04E-12  4.34E-06
 -1.6209E+00 -1.6166E+00 -6.7561E-01 -6.6667E-01 -6.6667E-01 -6.6646E-01
 -6.5732E-01 -6.5732E-01  4.6590E-01  4.9450E-01  4.9899E-01  5.6357E-01
  5.8833E-01  5.8833E-01  6.2522E-01  6.2522E-01  6.3340E-01  6.8366E-01
  7.3292E-01  7.7505E-01  1.1938E+00  1.2073E+00  1.2378E+00  1.2378E+00
  1.2663E+00  1.3154E+00  1.3265E+00  1.3265E+00  1.5404E+00  1.5404E+00
  1.6339E+00  1.6376E+00  1.6376E+00  1.6954E+00  1.7423E+00  1.8250E+00
  1.8878E+00  1.8939E+00  1.8939E+00  1.9542E+00
 Non-SCF case, kpt   28 (  0.00000  0.42857  0.00000), residuals and eigenvalues=
  3.52E-13  5.73E-13  2.01E-13  9.09E-13  4.22E-13  6.52E-13  3.88E-13  7.59E-13
  7.18E-13  5.21E-13  6.44E-13  9.28E-13  8.52E-14  8.38E-13  5.73E-13  6.77E-14
  8.37E-14  6.99E-13  8.78E-13  6.95E-14  8.31E-13  1.56E-13  2.47E-13  9.28E-13
  2.61E-13  3.43E-13  6.01E-13  2.75E-13  8.79E-13  7.56E-13  9.51E-13  2.57E-13
  7.72E-13  5.63E-13  2.50E-13  6.62E-13  6.41E-13  7.52E-13  4.22E-13  6.33E-06
 -1.6205E+00 -1.6169E+00 -6.7495E-01 -6.6750E-01 -6.6582E-01 -6.6582E-01
 -6.5814E-01 -6.5814E-01  4.7094E-01  4.9485E-01  5.0422E-01  5.5719E-01
  5.9055E-01  5.9055E-01  6.2071E-01  6.2071E-01  6.3756E-01  6.7881E-01
  7.3563E-01  7.6947E-01  1.1898E+00  1.2005E+00  1.2511E+00  1.2511E+00
  1.2710E+00  1.3112E+00  1.3272E+00  1.3272E+00  1.5390E+00  1.5390E+00
  1.6221E+00  1.6221E+00  1.6434E+00  1.7148E+00  1.7323E+00  1.8421E+00
  1.8769E+00  1.8984E+00  1.8984E+00  1.9480E+00
 Non-SCF case, kpt   29 (  0.00000  0.44444  0.00000), residuals and eigenvalues=
  3.66E-13  6.20E-13  2.17E-13  8.92E-13  2.10E-13  7.43E-13  3.57E-13  7.69E-13
  9.82E-14  4.62E-13  7.15E-13  8.26E-13  9.34E-14  6.49E-14  5.65E-13  6.35E-14
  8.16E-14  6.79E-13  9.63E-13  6.54E-14  8.42E-13  1.86E-13  1.92E-13  3.40E-13
  3.08E-13  3.80E-13  6.01E-13  3.74E-13  8.26E-13  8.79E-13  6.07E-13  8.38E-13
  3.59E-13  9.56E-13  6.12E-13  6.05E-13  6.18E-13  8.89E-13  9.83E-13  1.42E-06
 -1.6201E+00 -1.6173E+00 -6.7431E-01 -6.6851E-01 -6.6497E-01 -6.6497E-01
 -6.5898E-01 -6.5898E-01  4.7564E-01  4.9457E-01  5.0960E-01  5.5088E-01
  5.9299E-01  5.9299E-01  6.1642E-01  6.1642E-01  6.4183E-01  6.7399E-01
  7.3843E-01  7.6432E-01  1.1868E+00  1.1948E+00  1.2640E+00  1.2640E+00
  1.2756E+00  1.3070E+00  1.3257E+00  1.3257E+00  1.5401E+00  1.5401E+00
  1.6072E+00  1.6072E+00  1.6530E+00  1.7222E+00  1.7343E+00  1.8596E+00
  1.8628E+00  1.9031E+00  1.9031E+00  1.9419E+00
 Non-SCF case, kpt   30 (  0.00000  0.46032  0.00000), residuals and eigenvalues=
  2.88E-13  5.85E-13  2.31E-13  9.25E-13  2.07E-13  7.36E-13  3.42E-13  7.27E-13
  9.22E-13  2.95E-13  6.13E-14  7.77E-13  2.33E-13  7.01E-13  4.83E-13  6.45E-14
  6.49E-14  7.03E-13  1.88E-13  8.92E-13  8.31E-13  1.68E-13  2.28E-13  5.07E-13
  3.40E-13  4.43E-13  5.72E-13  2.94E-13  2.93E-13  9.95E-13  1.68E-13  6.79E-13
  8.02E-13  9.46E-13  8.27E-13  9.42E-13  8.84E-13  8.92E-13  6.80E-13  9.13E-09
 -1.6197E+00 -1.6177E+00 -6.7362E-01 -6.6947E-01 -6.6412E-01 -6.6412E-01
 -6.5982E-01 -6.5982E-01  4.7994E-01  4.9365E-01  5.1512E-01  5.4466E-01
  5.9565E-01  5.9565E-01  6.1238E-01  6.1238E-01  6.4619E-01  6.6921E-01
  7.4136E-01  7.5962E-01  1.1847E+00  1.1903E+00  1.2764E+00  1.2764E+00
  1.2803E+00  1.3027E+00  1.3218E+00  1.3218E+00  1.5439E+00  1.5439E+00
  1.5932E+00  1.5932E+00  1.6627E+00  1.7122E+00  1.7536E+00  1.8467E+00
  1.8775E+00  1.9081E+00  1.9081E+00  1.9359E+00
 Non-SCF case, kpt   31 (  0.00000  0.47619  0.00000), residuals and eigenvalues=
  3.95E-13  5.31E-13  2.56E-13  8.89E-13  1.96E-13  7.56E-13  3.48E-13  6.65E-13
  6.19E-13  2.42E-13  5.31E-13  3.73E-13  5.35E-14  8.17E-13  4.31E-13  6.22E-14
  8.22E-13  8.75E-13  5.73E-13  9.12E-13  8.74E-13  2.12E-13  5.24E-13  2.27E-13
  5.13E-13  4.18E-13  6.08E-13  3.22E-13  5.75E-13  2.18E-13  2.67E-13  4.03E-13
  9.27E-13  6.56E-13  6.05E-13  5.82E-13  8.86E-13  8.99E-13  4.27E-09  1.91E-09
 -1.6193E+00 -1.6181E+00 -6.7288E-01 -6.7040E-01 -6.6326E-01 -6.6326E-01
 -6.6067E-01 -6.6067E-01  4.8379E-01  4.9210E-01  5.2079E-01  5.3853E-01
  5.9853E-01  5.9853E-01  6.0856E-01  6.0856E-01  6.5065E-01  6.6447E-01
  7.4446E-01  7.5532E-01  1.1836E+00  1.1869E+00  1.2848E+00  1.2880E+00
  1.2880E+00  1.2983E+00  1.3158E+00  1.3158E+00  1.5501E+00  1.5501E+00
  1.5803E+00  1.5803E+00  1.6725E+00  1.7023E+00  1.7730E+00  1.8292E+00
  1.8957E+00  1.9133E+00  1.9133E+00  1.9300E+00
 Non-SCF case, kpt   32 (  0.00000  0.49206  0.00000), residuals and eigenvalues=
  3.75E-13  4.58E-13  3.47E-13  8.09E-13  2.08E-13  7.43E-13  3.48E-13  6.34E-13
  4.38E-13  1.65E-13  7.16E-13  3.26E-13  7.86E-13  6.41E-13  4.30E-13  5.78E-14
  8.66E-13  8.98E-13  5.42E-13  9.67E-13  1.67E-13  1.82E-13  8.77E-13  4.45E-13
  3.36E-13  3.48E-13  3.27E-13  4.15E-13  8.55E-13  2.44E-13  9.61E-13  2.93E-13
  9.73E-13  5.66E-13  4.33E-13  6.23E-13  4.82E-10  9.29E-12  2.35E-08  4.75E-09
 -1.6189E+00 -1.6185E+00 -6.7209E-01 -6.7128E-01 -6.6240E-01 -6.6240E-01
 -6.6153E-01 -6.6153E-01  4.8712E-01  4.8992E-01  5.2658E-01  5.3250E-01
  6.0165E-01  6.0165E-01  6.0499E-01  6.0499E-01  6.5519E-01  6.5980E-01
  7.4779E-01  7.5139E-01  1.1836E+00  1.1847E+00  1.2894E+00  1.2939E+00
  1.2986E+00  1.2986E+00  1.3079E+00  1.3079E+00  1.5584E+00  1.5584E+00
  1.5686E+00  1.5686E+00  1.6823E+00  1.6923E+00  1.7921E+00  1.8109E+00
  1.9141E+00  1.9187E+00  1.9187E+00  1.9243E+00
  prteigrs : nnsclo,ikpt=   50   32 max resid (excl. the buffer)=  4.82047E-10
 Non-SCF case, kpt   33 (  0.01111 -0.01111  0.00000), residuals and eigenvalues=
  3.67E-13  2.81E-13  2.77E-13  4.05E-13  4.05E-13  1.10E-13  9.59E-13  6.41E-13
  2.19E-13  1.28E-13  8.49E-13  4.79E-13  9.92E-14  6.24E-13  2.29E-13  3.47E-13
  5.24E-13  5.68E-13  1.08E-13  2.21E-13  3.08E-13  1.25E-13  2.39E-13  4.53E-13
  4.23E-13  1.69E-13  5.95E-13  8.23E-13  6.89E-13  4.15E-13  7.53E-13  6.71E-13
  1.95E-13  3.08E-13  3.21E-13  4.91E-13  5.16E-13  2.96E-13  5.13E-13  6.89E-13
 -1.6272E+00 -1.6114E+00 -6.7950E-01 -6.7946E-01 -6.7945E-01 -6.4532E-01
 -6.4527E-01 -6.4525E-01  3.6156E-01  4.2904E-01  4.2907E-01  5.7621E-01
  5.7630E-01  5.7651E-01  6.8557E-01  6.8575E-01  7.6869E-01  7.6888E-01
  7.6954E-01  9.5680E-01  9.5718E-01  9.5770E-01  1.1740E+00  1.1742E+00
  1.1742E+00  1.3415E+00  1.3772E+00  1.3773E+00  1.4856E+00  1.5846E+00
  1.5864E+00  1.7130E+00  1.7131E+00  1.7158E+00  1.9210E+00  1.9213E+00
  1.9219E+00  1.9580E+00  1.9584E+00  1.9595E+00
 Non-SCF case, kpt   34 ( -0.01111 -0.01111  0.00000), residuals and eigenvalues=
  4.92E-13  3.11E-13  5.83E-13  5.78E-13  3.11E-13  6.22E-13  1.57E-13  1.27E-13
  3.47E-13  7.63E-13  6.64E-13  6.62E-13  1.23E-13  5.94E-13  4.58E-13  4.75E-13
  1.57E-13  7.26E-13  7.33E-13  5.19E-13  2.73E-13  2.19E-13  6.26E-13  4.82E-13
  2.17E-13  1.77E-13  4.99E-13  2.56E-13  3.67E-13  2.62E-13  8.49E-13  3.36E-13
  8.85E-13  5.14E-13  7.13E-13  5.58E-13  7.91E-13  8.17E-13  2.64E-13  7.86E-13
 -1.6272E+00 -1.6114E+00 -6.7950E-01 -6.7946E-01 -6.7945E-01 -6.4532E-01
 -6.4527E-01 -6.4525E-01  3.6156E-01  4.2904E-01  4.2907E-01  5.7621E-01
  5.7630E-01  5.7651E-01  6.8557E-01  6.8575E-01  7.6869E-01  7.6888E-01
  7.6954E-01  9.5680E-01  9.5718E-01  9.5770E-01  1.1740E+00  1.1742E+00
  1.1742E+00  1.3415E+00  1.3772E+00  1.3773E+00  1.4856E+00  1.5846E+00
  1.5864E+00  1.7130E+00  1.7131E+00  1.7158E+00  1.9210E+00  1.9213E+00
  1.9219E+00  1.9580E+00  1.9584E+00  1.9595E+00
[...]
                       2.22222220E-01 -2.22222220E-01  0.00000000E+00
                      -2.22222220E-01 -2.22222220E-01  0.00000000E+00
                       2.33333330E-01 -2.33333330E-01  0.00000000E+00
                      -2.33333330E-01 -2.33333330E-01  0.00000000E+00
                       2.44444440E-01 -2.44444440E-01  0.00000000E+00
                      -2.44444440E-01 -2.44444440E-01  0.00000000E+00
                       2.55555560E-01 -2.55555560E-01  0.00000000E+00
                      -2.55555560E-01 -2.55555560E-01  0.00000000E+00
                       2.66666670E-01 -2.66666670E-01  0.00000000E+00
                      -2.66666670E-01 -2.66666670E-01  0.00000000E+00
                       2.77777780E-01 -2.77777780E-01  0.00000000E+00
                      -2.77777780E-01 -2.77777780E-01  0.00000000E+00
                       2.88888890E-01 -2.88888890E-01  0.00000000E+00
                      -2.88888890E-01 -2.88888890E-01  0.00000000E+00
                       3.00000000E-01 -3.00000000E-01  0.00000000E+00
                      -3.00000000E-01 -3.00000000E-01  0.00000000E+00
                       3.11111110E-01 -3.11111110E-01  0.00000000E+00
                      -3.11111110E-01 -3.11111110E-01  0.00000000E+00
                       3.22222220E-01 -3.22222220E-01  0.00000000E+00
                      -3.22222220E-01 -3.22222220E-01  0.00000000E+00
                       3.33333330E-01 -3.33333330E-01  0.00000000E+00
                      -3.33333330E-01 -3.33333330E-01  0.00000000E+00
                       3.44444440E-01 -3.44444440E-01  0.00000000E+00
                      -3.44444440E-01 -3.44444440E-01  0.00000000E+00
                       3.55555560E-01 -3.55555560E-01  0.00000000E+00
                      -3.55555560E-01 -3.55555560E-01  0.00000000E+00
                       3.66666670E-01 -3.66666670E-01  0.00000000E+00
                      -3.66666670E-01 -3.66666670E-01  0.00000000E+00
                       3.77777780E-01 -3.77777780E-01  0.00000000E+00
                      -3.77777780E-01 -3.77777780E-01  0.00000000E+00
                       3.88888890E-01 -3.88888890E-01  0.00000000E+00
                      -3.88888890E-01 -3.88888890E-01  0.00000000E+00
                       4.00000000E-01 -4.00000000E-01  0.00000000E+00
                      -4.00000000E-01 -4.00000000E-01  0.00000000E+00
                       4.11111110E-01 -4.11111110E-01  0.00000000E+00
                      -4.11111110E-01 -4.11111110E-01  0.00000000E+00
                       4.22222220E-01 -4.22222220E-01  0.00000000E+00
                      -4.22222220E-01 -4.22222220E-01  0.00000000E+00
                       4.33333330E-01 -4.33333330E-01  0.00000000E+00
                      -4.33333330E-01 -4.33333330E-01  0.00000000E+00
                       4.44444440E-01 -4.44444440E-01  0.00000000E+00
                      -4.44444440E-01 -4.44444440E-01  0.00000000E+00
                       4.55555560E-01 -4.55555560E-01  0.00000000E+00
                      -4.55555560E-01 -4.55555560E-01  0.00000000E+00
                       4.66666670E-01 -4.66666670E-01  0.00000000E+00
                      -4.66666670E-01 -4.66666670E-01  0.00000000E+00
                       4.77777780E-01 -4.77777780E-01  0.00000000E+00
                      -4.77777780E-01 -4.77777780E-01  0.00000000E+00
                       4.88888890E-01 -4.88888890E-01  0.00000000E+00
                      -4.88888890E-01 -4.88888890E-01  0.00000000E+00
                       5.00000000E-01  5.00000000E-01  0.00000000E+00
                       9.09091000E-03  9.09091000E-03  9.09091000E-03
                       9.09091000E-03 -9.09091000E-03  9.09091000E-03
                       1.81818200E-02  1.81818200E-02  1.81818200E-02
                       1.81818200E-02 -1.81818200E-02  1.81818200E-02
                       2.72727300E-02  2.72727300E-02  2.72727300E-02
                       2.72727300E-02 -2.72727300E-02  2.72727300E-02
                       3.63636400E-02  3.63636400E-02  3.63636400E-02
                       3.63636400E-02 -3.63636400E-02  3.63636400E-02
                       4.54545500E-02  4.54545500E-02  4.54545500E-02
                       4.54545500E-02 -4.54545500E-02  4.54545500E-02
                       5.45454500E-02  5.45454500E-02  5.45454500E-02
                       5.45454500E-02 -5.45454500E-02  5.45454500E-02
                       6.36363600E-02  6.36363600E-02  6.36363600E-02
                       6.36363600E-02 -6.36363600E-02  6.36363600E-02
                       7.27272700E-02  7.27272700E-02  7.27272700E-02
                       7.27272700E-02 -7.27272700E-02  7.27272700E-02
                       8.18181800E-02  8.18181800E-02  8.18181800E-02
                       8.18181800E-02 -8.18181800E-02  8.18181800E-02
                       9.09090900E-02  9.09090900E-02  9.09090900E-02
                       9.09090900E-02 -9.09090900E-02  9.09090900E-02
                       1.00000000E-01  1.00000000E-01  1.00000000E-01
                       1.00000000E-01 -1.00000000E-01  1.00000000E-01
                       1.09090910E-01  1.09090910E-01  1.09090910E-01
                       1.09090910E-01 -1.09090910E-01  1.09090910E-01
                       1.18181820E-01  1.18181820E-01  1.18181820E-01
                       1.18181820E-01 -1.18181820E-01  1.18181820E-01
                       1.27272730E-01  1.27272730E-01  1.27272730E-01
                       1.27272730E-01 -1.27272730E-01  1.27272730E-01
                       1.36363640E-01  1.36363640E-01  1.36363640E-01
                       1.36363640E-01 -1.36363640E-01  1.36363640E-01
                       1.45454550E-01  1.45454550E-01  1.45454550E-01
                       1.45454550E-01 -1.45454550E-01  1.45454550E-01
                       1.54545450E-01  1.54545450E-01  1.54545450E-01
                       1.54545450E-01 -1.54545450E-01  1.54545450E-01
                       1.63636360E-01  1.63636360E-01  1.63636360E-01
                       1.63636360E-01 -1.63636360E-01  1.63636360E-01
                       1.72727270E-01  1.72727270E-01  1.72727270E-01
                       1.72727270E-01 -1.72727270E-01  1.72727270E-01
                       1.81818180E-01  1.81818180E-01  1.81818180E-01
                       1.81818180E-01 -1.81818180E-01  1.81818180E-01
                       1.90909090E-01  1.90909090E-01  1.90909090E-01
                       1.90909090E-01 -1.90909090E-01  1.90909090E-01
                       2.00000000E-01  2.00000000E-01  2.00000000E-01
                       2.00000000E-01 -2.00000000E-01  2.00000000E-01
                       2.09090910E-01  2.09090910E-01  2.09090910E-01
                       2.09090910E-01 -2.09090910E-01  2.09090910E-01
                       2.18181820E-01  2.18181820E-01  2.18181820E-01
                       2.18181820E-01 -2.18181820E-01  2.18181820E-01
                       2.27272730E-01  2.27272730E-01  2.27272730E-01
                       2.27272730E-01 -2.27272730E-01  2.27272730E-01
                       2.36363640E-01  2.36363640E-01  2.36363640E-01
                       2.36363640E-01 -2.36363640E-01  2.36363640E-01
                       2.45454550E-01  2.45454550E-01  2.45454550E-01
                       2.45454550E-01 -2.45454550E-01  2.45454550E-01
                       2.54545450E-01  2.54545450E-01  2.54545450E-01
                       2.54545450E-01 -2.54545450E-01  2.54545450E-01
                       2.63636360E-01  2.63636360E-01  2.63636360E-01
                       2.63636360E-01 -2.63636360E-01  2.63636360E-01
                       2.72727270E-01  2.72727270E-01  2.72727270E-01
                       2.72727270E-01 -2.72727270E-01  2.72727270E-01
                       2.81818180E-01  2.81818180E-01  2.81818180E-01
                       2.81818180E-01 -2.81818180E-01  2.81818180E-01
                       2.90909090E-01  2.90909090E-01  2.90909090E-01
                       2.90909090E-01 -2.90909090E-01  2.90909090E-01
                       3.00000000E-01  3.00000000E-01  3.00000000E-01
                       3.00000000E-01 -3.00000000E-01  3.00000000E-01
                       3.09090910E-01  3.09090910E-01  3.09090910E-01
                       3.09090910E-01 -3.09090910E-01  3.09090910E-01
                       3.18181820E-01  3.18181820E-01  3.18181820E-01
                       3.18181820E-01 -3.18181820E-01  3.18181820E-01
                       3.27272730E-01  3.27272730E-01  3.27272730E-01
                       3.27272730E-01 -3.27272730E-01  3.27272730E-01
                       3.36363640E-01  3.36363640E-01  3.36363640E-01
                       3.36363640E-01 -3.36363640E-01  3.36363640E-01
                       3.45454550E-01  3.45454550E-01  3.45454550E-01
                       3.45454550E-01 -3.45454550E-01  3.45454550E-01
                       3.54545450E-01  3.54545450E-01  3.54545450E-01
                       3.54545450E-01 -3.54545450E-01  3.54545450E-01
                       3.63636360E-01  3.63636360E-01  3.63636360E-01
                       3.63636360E-01 -3.63636360E-01  3.63636360E-01
                       3.72727270E-01  3.72727270E-01  3.72727270E-01
                       3.72727270E-01 -3.72727270E-01  3.72727270E-01
                       3.81818180E-01  3.81818180E-01  3.81818180E-01
                       3.81818180E-01 -3.81818180E-01  3.81818180E-01
                       3.90909090E-01  3.90909090E-01  3.90909090E-01
                       3.90909090E-01 -3.90909090E-01  3.90909090E-01
                       4.00000000E-01  4.00000000E-01  4.00000000E-01
                       4.00000000E-01 -4.00000000E-01  4.00000000E-01
                       4.09090910E-01  4.09090910E-01  4.09090910E-01
                       4.09090910E-01 -4.09090910E-01  4.09090910E-01
                       4.18181820E-01  4.18181820E-01  4.18181820E-01
                       4.18181820E-01 -4.18181820E-01  4.18181820E-01
                       4.27272730E-01  4.27272730E-01  4.27272730E-01
                       4.27272730E-01 -4.27272730E-01  4.27272730E-01
                       4.36363640E-01  4.36363640E-01  4.36363640E-01
                       4.36363640E-01 -4.36363640E-01  4.36363640E-01
                       4.45454550E-01  4.45454550E-01  4.45454550E-01
                       4.45454550E-01 -4.45454550E-01  4.45454550E-01
                       4.54545450E-01  4.54545450E-01  4.54545450E-01
                       4.54545450E-01 -4.54545450E-01  4.54545450E-01
                       4.63636360E-01  4.63636360E-01  4.63636360E-01
                       4.63636360E-01 -4.63636360E-01  4.63636360E-01
                       4.72727270E-01  4.72727270E-01  4.72727270E-01
                       4.72727270E-01 -4.72727270E-01  4.72727270E-01
                       4.81818180E-01  4.81818180E-01  4.81818180E-01
                       4.81818180E-01 -4.81818180E-01  4.81818180E-01
                       4.90909090E-01  4.90909090E-01  4.90909090E-01
                       4.90909090E-01 -4.90909090E-01  4.90909090E-01
                       5.00000000E-01  5.00000000E-01  5.00000000E-01
                       5.00000000E-01  5.00000000E-01  4.84375000E-01
                       5.00000000E-01  5.00000000E-01  4.68750000E-01
                       5.00000000E-01  5.00000000E-01  4.53125000E-01
                       5.00000000E-01  5.00000000E-01  4.37500000E-01
                       5.00000000E-01  5.00000000E-01  4.21875000E-01
                       5.00000000E-01  5.00000000E-01  4.06250000E-01
                       5.00000000E-01  5.00000000E-01  3.90625000E-01
                       5.00000000E-01  5.00000000E-01  3.75000000E-01
                       5.00000000E-01  5.00000000E-01  3.59375000E-01
                       5.00000000E-01  5.00000000E-01  3.43750000E-01
                       5.00000000E-01  5.00000000E-01  3.28125000E-01
                       5.00000000E-01  5.00000000E-01  3.12500000E-01
                       5.00000000E-01  5.00000000E-01  2.96875000E-01
                       5.00000000E-01  5.00000000E-01  2.81250000E-01
                       5.00000000E-01  5.00000000E-01  2.65625000E-01
                       5.00000000E-01  5.00000000E-01  2.50000000E-01
                       5.00000000E-01  5.00000000E-01  2.34375000E-01
                       5.00000000E-01  5.00000000E-01  2.18750000E-01
                       5.00000000E-01  5.00000000E-01  2.03125000E-01
                       5.00000000E-01  5.00000000E-01  1.87500000E-01
                       5.00000000E-01  5.00000000E-01  1.71875000E-01
                       5.00000000E-01  5.00000000E-01  1.56250000E-01
                       5.00000000E-01  5.00000000E-01  1.40625000E-01
                       5.00000000E-01  5.00000000E-01  1.25000000E-01
                       5.00000000E-01  5.00000000E-01  1.09375000E-01
                       5.00000000E-01  5.00000000E-01  9.37500000E-02
                       5.00000000E-01  5.00000000E-01  7.81250000E-02
                       5.00000000E-01  5.00000000E-01  6.25000000E-02
                       5.00000000E-01  5.00000000E-01  4.68750000E-02
                       5.00000000E-01  5.00000000E-01  3.12500000E-02
                       5.00000000E-01  5.00000000E-01  1.56250000E-02
           kptopt           0
P           mkmem         261
            natom           2
            nband          40
           nbdbuf           2
            ngfft          30      30      30
             nkpt         261
            nstep          50
             nsym           1
           ntypat           1
           occopt           7
           prtvol           2
          spgroup           1
           tolwfr      1.00000000E-12
           tsmear      5.00000000E-03 Hartree
            typat      1  1
           xangst      0.0000000000E+00  0.0000000000E+00  0.0000000000E+00
                       1.5809313735E+00  1.5809313735E+00  1.5809313735E+00
            xcart      0.0000000000E+00  0.0000000000E+00  0.0000000000E+00
                       2.9875273308E+00  2.9875273308E+00  2.9875273308E+00
             xred      0.0000000000E+00  0.0000000000E+00  0.0000000000E+00
                       5.0000000000E-01  5.0000000000E-01  5.0000000000E-01
            znucl       42.00000
 
================================================================================
 
 The spacegroup number, the magnetic point group, and/or the number of symmetries
 have changed between the initial recognition based on the input file
 and a postprocessing based on the final acell, rprim, and xred.
 More details in the log file.


- Timing analysis has been suppressed with timopt=0



================================================================================

 Suggested references for the acknowledgment of ABINIT usage.

 The users of ABINIT have little formal obligations with respect to the ABINIT group
 (those specified in the GNU General Public License, http://www.gnu.org/copyleft/gpl.txt).
 However, it is common practice in the scientific literature,
 to acknowledge the efforts of people that have made the research possible.
 In this spirit, please find below suggested citations of work written by ABINIT developers,
 corresponding to implementations inside of ABINIT that you have used in the present run.
 Note also that it will be of great value to readers of publications presenting these results,
 to read papers enabling them to understand the theoretical formalism and details
 of the ABINIT implementation.
 For information on why they are suggested, see also https://docs.abinit.org/theory/acknowledgments.
-
- [1] Specification of an extensible and portable file format for electronic structure and crystallographic data
- X. Gonze, C.-O. Almbladh, A. Cucca, D. Caliste, C. Freysoldt, M. Marques, V. Olevano, Y. Pouillon, M.J. Verstraete,
- Comput. Material Science 43, 1056 (2008).
- Comment: to be cited in case the ETSF_IO file format is used, i.e. iomode=3.
- DOI and bibtex: see https://docs.abinit.org/theory/bibliography/#gonze2008
-
- [2] The Abinit project: Impact, environment and recent developments.
- Computer Phys. Comm. 248, 107042 (2020).
- X.Gonze, B. Amadon, G. Antonius, F.Arnardi, L.Baguet, J.-M.Beuken,
- J.Bieder, F.Bottin, J.Bouchet, E.Bousquet, N.Brouwer, F.Bruneval,
- G.Brunin, T.Cavignac, J.-B. Charraud, Wei Chen, M.Cote, S.Cottenier,
- J.Denier, G.Geneste, Ph.Ghosez, M.Giantomassi, Y.Gillet, O.Gingras,
- D.R.Hamann, G.Hautier, Xu He, N.Helbig, N.Holzwarth, Y.Jia, F.Jollet,
- W.Lafargue-Dit-Hauret, K.Lejaeghere, M.A.L.Marques, A.Martin, C.Martins,
- H.P.C. Miranda, F.Naccarato, K. Persson, G.Petretto, V.Planes, Y.Pouillon,
- S.Prokhorenko, F.Ricci, G.-M.Rignanese, A.H.Romero, M.M.Schmitt, M.Torrent,
- M.J.van Setten, B.Van Troeye, M.J.Verstraete, G.Zerah and J.W.Zwanzig
- Comment: the fifth generic paper describing the ABINIT project.
- Note that a version of this paper, that is not formatted for Computer Phys. Comm. 
- is available at https://www.abinit.org/sites/default/files/ABINIT20.pdf .
- The licence allows the authors to put it on the Web.
- DOI and bibtex: see https://docs.abinit.org/theory/bibliography/#gonze2020
-
- [3] Optimized norm-conserving Vanderbilt pseudopotentials.
- D.R. Hamann, Phys. Rev. B 88, 085117 (2013).
- Comment: Some pseudopotential generated using the ONCVPSP code were used.
- DOI and bibtex: see https://docs.abinit.org/theory/bibliography/#hamann2013
-
- [4] ABINIT: Overview, and focus on selected capabilities
- J. Chem. Phys. 152, 124102 (2020).
- A. Romero, D.C. Allan, B. Amadon, G. Antonius, T. Applencourt, L.Baguet,
- J.Bieder, F.Bottin, J.Bouchet, E.Bousquet, F.Bruneval,
- G.Brunin, D.Caliste, M.Cote,
- J.Denier, C. Dreyer, Ph.Ghosez, M.Giantomassi, Y.Gillet, O.Gingras,
- D.R.Hamann, G.Hautier, F.Jollet, G. Jomard,
- A.Martin, 
- H.P.C. Miranda, F.Naccarato, G.Petretto, N.A. Pike, V.Planes,
- S.Prokhorenko, T. Rangel, F.Ricci, G.-M.Rignanese, M.Royo, M.Stengel, M.Torrent,
- M.J.van Setten, B.Van Troeye, M.J.Verstraete, J.Wiktor, J.W.Zwanziger, and X.Gonze.
- Comment: a global overview of ABINIT, with focus on selected capabilities .
- Note that a version of this paper, that is not formatted for J. Chem. Phys 
- is available at https://www.abinit.org/sites/default/files/ABINIT20_JPC.pdf .
- The licence allows the authors to put it on the Web.
- DOI and bibtex: see https://docs.abinit.org/theory/bibliography/#romero2020
-
- [5] Recent developments in the ABINIT software package.
- Computer Phys. Comm. 205, 106 (2016).
- X.Gonze, F.Jollet, F.Abreu Araujo, D.Adams, B.Amadon, T.Applencourt,
- C.Audouze, J.-M.Beuken, J.Bieder, A.Bokhanchuk, E.Bousquet, F.Bruneval
- D.Caliste, M.Cote, F.Dahm, F.Da Pieve, M.Delaveau, M.Di Gennaro,
- B.Dorado, C.Espejo, G.Geneste, L.Genovese, A.Gerossier, M.Giantomassi,
- Y.Gillet, D.R.Hamann, L.He, G.Jomard, J.Laflamme Janssen, S.Le Roux,
- A.Levitt, A.Lherbier, F.Liu, I.Lukacevic, A.Martin, C.Martins,
- M.J.T.Oliveira, S.Ponce, Y.Pouillon, T.Rangel, G.-M.Rignanese,
- A.H.Romero, B.Rousseau, O.Rubel, A.A.Shukri, M.Stankovski, M.Torrent,
- M.J.Van Setten, B.Van Troeye, M.J.Verstraete, D.Waroquier, J.Wiktor,
- B.Xu, A.Zhou, J.W.Zwanziger.
- Comment: the fourth generic paper describing the ABINIT project.
- Note that a version of this paper, that is not formatted for Computer Phys. Comm. 
- is available at https://www.abinit.org/sites/default/files/ABINIT16.pdf .
- The licence allows the authors to put it on the Web.
- DOI and bibtex: see https://docs.abinit.org/theory/bibliography/#gonze2016
-
- Proc.   0 individual time (sec): cpu=        355.0  wall=        355.0
 
================================================================================
 
 Calculation completed.
.Delivered   4 WARNINGs and   7 COMMENTs to log file.
+Overall time at end (sec) : cpu=        355.0  wall=        355.0
