
.Version 10.4.5 of ABINIT, released Jul 2025.
.(MPI version, prepared for a x86_64_linux_nvhpc25.7-0 computer) 

.Copyright (C) 1998-2025 ABINIT group . 
 ABINIT comes with ABSOLUTELY NO WARRANTY.
 It is free software, and you are welcome to redistribute it
 under certain conditions (GNU General Public License,
 see ~abinit/COPYING or http://www.gnu.org/copyleft/gpl.txt).

 ABINIT is a project of the Universite Catholique de Louvain,
 Corning Inc. and other collaborators, see ~abinit/doc/developers/contributors.txt .
 Please read https://docs.abinit.org/theory/acknowledgments for suggested
 acknowledgments of the ABINIT effort.
 For more information, see https://www.abinit.org .

.Starting date : Tue 10 Mar 2026.
- ( at 11h44 )
  
- input  file    -> trf2_1.abi
- output file    -> trf2_1.abo
- root for input  files -> trf2_1i
- root for output files -> trf2_1o
 
 Symmetries : space group P1 (#  1); Bravais aP (primitive triclinic)
================================================================================
 Values of the parameters that define the memory need of the present run
     intxc =       0    ionmov =       0      iscf =      -2    lmnmax =       6
     lnmax =       6     mgfft =      60  mpssoang =       3    mqgrid =    3001
     natom =      16  nloc_mem =       1    nspden =       1   nspinor =       1
    nsppol =       1      nsym =       1    n1xccc =    2501    ntypat =       1
    occopt =       7   xclevel =       2
-    mband =         160        mffmem =           1         mkmem =         146
       mpw =       13448          nfft =      216000          nkpt =         146
================================================================================
P This job should need less than                    4868.401 Mbytes of memory.
  Rough estimation (10% accuracy) of disk space for files :
_ WF disk file :   4793.479 Mbytes ; DEN or POT disk file :      1.650 Mbytes.
================================================================================
 
--------------------------------------------------------------------------------
------------- Echo of variables that govern the present computation ------------
--------------------------------------------------------------------------------
-
- outvars: echo of selected default values
-   iomode0 =  0 , fftalg0 =312 , wfoptalg0 =  0
-
- outvars: echo of global parameters not present in the input file
-  max_nthreads =   64
-
 -outvars: echo values of preprocessed input variables --------
-          iomode           3
            acell      1.1950109323E+01  1.1950109323E+01  1.1950109323E+01 Bohr
              amu      9.59400000E+01
          chkprim           0
             ecut      3.00000000E+01 Hartree
           enunit           1
-          fftalg         312
           getden          -1
             iscf          -2
           istwfk        1    0    0    0    0    0    0    0    0    0
                         0    0    0    0    0    0    0    0    0    0
                         0    0    0    0    0    0    0    0    0    0
                         0    0    0    0    0    0    0    0    0    0
                         0    0    0    0    0    0    0    0    0    0
                         0    0    0    0    0    0    0    0    0    0
                         0    0    0    0    0    0    0    0    0    0
                         0    0    0    0    0    0    0    0    0    0
                         0    0    0    0    0    0    0    0    0    0
                         0    0    0    0    0    0    0    0    0    0
                         0    0    0    0    0    0    0    0    0    0
                         0    0    0    0    0    0    0    0    0    0
                         0    0    0    0    0    0    0    0    0    0
                         0    0    0    0    0    0    0    0    0    0
                         0    0    0    0    0    1
              ixc          11
              kpt      0.00000000E+00  0.00000000E+00  0.00000000E+00
                       0.00000000E+00  3.17460300E-02  0.00000000E+00
                       0.00000000E+00  6.34920600E-02  0.00000000E+00
                       0.00000000E+00  9.52381000E-02  0.00000000E+00
                       0.00000000E+00  1.26984130E-01  0.00000000E+00
                       0.00000000E+00  1.58730160E-01  0.00000000E+00
                       0.00000000E+00  1.90476190E-01  0.00000000E+00
                       0.00000000E+00  2.22222220E-01  0.00000000E+00
                       0.00000000E+00  2.53968250E-01  0.00000000E+00
                       0.00000000E+00  2.85714290E-01  0.00000000E+00
                       0.00000000E+00  3.17460320E-01  0.00000000E+00
                       0.00000000E+00  3.49206350E-01  0.00000000E+00
                       0.00000000E+00  3.80952380E-01  0.00000000E+00
                       0.00000000E+00  4.12698410E-01  0.00000000E+00
                       0.00000000E+00  4.44444440E-01  0.00000000E+00
                       0.00000000E+00  4.76190480E-01  0.00000000E+00
                       0.00000000E+00 -4.92063490E-01  0.00000000E+00
                       0.00000000E+00 -4.60317460E-01  0.00000000E+00
                       0.00000000E+00 -4.28571430E-01  0.00000000E+00
                       0.00000000E+00 -3.96825400E-01  0.00000000E+00
                       0.00000000E+00 -3.65079370E-01  0.00000000E+00
                       0.00000000E+00 -3.33333330E-01  0.00000000E+00
                       0.00000000E+00 -3.01587300E-01  0.00000000E+00
                       0.00000000E+00 -2.69841270E-01  0.00000000E+00
                       0.00000000E+00 -2.38095240E-01  0.00000000E+00
                       0.00000000E+00 -2.06349210E-01  0.00000000E+00
                       0.00000000E+00 -1.74603170E-01  0.00000000E+00
                       0.00000000E+00 -1.42857140E-01  0.00000000E+00
                       0.00000000E+00 -1.11111110E-01  0.00000000E+00
                       0.00000000E+00 -7.93650800E-02  0.00000000E+00
                       0.00000000E+00 -4.76190500E-02  0.00000000E+00
                       0.00000000E+00 -1.58730200E-02  0.00000000E+00
                       2.22222200E-02 -2.22222200E-02  0.00000000E+00
                      -2.22222200E-02 -2.22222200E-02  0.00000000E+00
                       4.44444400E-02 -4.44444400E-02  0.00000000E+00
                      -4.44444400E-02 -4.44444400E-02  0.00000000E+00
                       6.66666700E-02 -6.66666700E-02  0.00000000E+00
                      -6.66666700E-02 -6.66666700E-02  0.00000000E+00
                       8.88888900E-02 -8.88888900E-02  0.00000000E+00
                      -8.88888900E-02 -8.88888900E-02  0.00000000E+00
                       1.11111110E-01 -1.11111110E-01  0.00000000E+00
                      -1.11111110E-01 -1.11111110E-01  0.00000000E+00
                       1.33333330E-01 -1.33333330E-01  0.00000000E+00
                      -1.33333330E-01 -1.33333330E-01  0.00000000E+00
                       1.55555560E-01 -1.55555560E-01  0.00000000E+00
                      -1.55555560E-01 -1.55555560E-01  0.00000000E+00
                       1.77777780E-01 -1.77777780E-01  0.00000000E+00
                      -1.77777780E-01 -1.77777780E-01  0.00000000E+00
                       2.00000000E-01 -2.00000000E-01  0.00000000E+00
                      -2.00000000E-01 -2.00000000E-01  0.00000000E+00
                       2.22222220E-01 -2.22222220E-01  0.00000000E+00
                      -2.22222220E-01 -2.22222220E-01  0.00000000E+00
                       2.44444440E-01 -2.44444440E-01  0.00000000E+00
                      -2.44444440E-01 -2.44444440E-01  0.00000000E+00
                       2.66666670E-01 -2.66666670E-01  0.00000000E+00
                      -2.66666670E-01 -2.66666670E-01  0.00000000E+00
                       2.88888890E-01 -2.88888890E-01  0.00000000E+00
                      -2.88888890E-01 -2.88888890E-01  0.00000000E+00
                       3.11111110E-01 -3.11111110E-01  0.00000000E+00
                      -3.11111110E-01 -3.11111110E-01  0.00000000E+00
                       3.33333330E-01 -3.33333330E-01  0.00000000E+00
                      -3.33333330E-01 -3.33333330E-01  0.00000000E+00
                       3.55555560E-01 -3.55555560E-01  0.00000000E+00
                      -3.55555560E-01 -3.55555560E-01  0.00000000E+00
                       3.77777780E-01 -3.77777780E-01  0.00000000E+00
                      -3.77777780E-01 -3.77777780E-01  0.00000000E+00
                       4.00000000E-01 -4.00000000E-01  0.00000000E+00
                      -4.00000000E-01 -4.00000000E-01  0.00000000E+00
                       4.22222220E-01 -4.22222220E-01  0.00000000E+00
                      -4.22222220E-01 -4.22222220E-01  0.00000000E+00
                       4.44444440E-01 -4.44444440E-01  0.00000000E+00
                      -4.44444440E-01 -4.44444440E-01  0.00000000E+00
                       4.66666670E-01 -4.66666670E-01  0.00000000E+00
                      -4.66666670E-01 -4.66666670E-01  0.00000000E+00
                       4.88888890E-01 -4.88888890E-01  0.00000000E+00
                      -4.88888890E-01 -4.88888890E-01  0.00000000E+00
                       1.81818200E-02  1.81818200E-02  1.81818200E-02
                       1.81818200E-02 -1.81818200E-02  1.81818200E-02
                       3.63636400E-02  3.63636400E-02  3.63636400E-02
                       3.63636400E-02 -3.63636400E-02  3.63636400E-02
                       5.45454500E-02  5.45454500E-02  5.45454500E-02
                       5.45454500E-02 -5.45454500E-02  5.45454500E-02
                       7.27272700E-02  7.27272700E-02  7.27272700E-02
                       7.27272700E-02 -7.27272700E-02  7.27272700E-02
                       9.09090900E-02  9.09090900E-02  9.09090900E-02
                       9.09090900E-02 -9.09090900E-02  9.09090900E-02
                       1.09090910E-01  1.09090910E-01  1.09090910E-01
                       1.09090910E-01 -1.09090910E-01  1.09090910E-01
                       1.27272730E-01  1.27272730E-01  1.27272730E-01
                       1.27272730E-01 -1.27272730E-01  1.27272730E-01
                       1.45454550E-01  1.45454550E-01  1.45454550E-01
                       1.45454550E-01 -1.45454550E-01  1.45454550E-01
                       1.63636360E-01  1.63636360E-01  1.63636360E-01
                       1.63636360E-01 -1.63636360E-01  1.63636360E-01
                       1.81818180E-01  1.81818180E-01  1.81818180E-01
                       1.81818180E-01 -1.81818180E-01  1.81818180E-01
                       2.00000000E-01  2.00000000E-01  2.00000000E-01
                       2.00000000E-01 -2.00000000E-01  2.00000000E-01
                       2.18181820E-01  2.18181820E-01  2.18181820E-01
                       2.18181820E-01 -2.18181820E-01  2.18181820E-01
                       2.36363640E-01  2.36363640E-01  2.36363640E-01
                       2.36363640E-01 -2.36363640E-01  2.36363640E-01
                       2.54545450E-01  2.54545450E-01  2.54545450E-01
                       2.54545450E-01 -2.54545450E-01  2.54545450E-01
                       2.72727270E-01  2.72727270E-01  2.72727270E-01
                       2.72727270E-01 -2.72727270E-01  2.72727270E-01
                       2.90909090E-01  2.90909090E-01  2.90909090E-01
                       2.90909090E-01 -2.90909090E-01  2.90909090E-01
                       3.09090910E-01  3.09090910E-01  3.09090910E-01
                       3.09090910E-01 -3.09090910E-01  3.09090910E-01
                       3.27272730E-01  3.27272730E-01  3.27272730E-01
                       3.27272730E-01 -3.27272730E-01  3.27272730E-01
                       3.45454550E-01  3.45454550E-01  3.45454550E-01
                       3.45454550E-01 -3.45454550E-01  3.45454550E-01
                       3.63636360E-01  3.63636360E-01  3.63636360E-01
                       3.63636360E-01 -3.63636360E-01  3.63636360E-01
                       3.81818180E-01  3.81818180E-01  3.81818180E-01
                       3.81818180E-01 -3.81818180E-01  3.81818180E-01
                       4.00000000E-01  4.00000000E-01  4.00000000E-01
                       4.00000000E-01 -4.00000000E-01  4.00000000E-01
                       4.18181820E-01  4.18181820E-01  4.18181820E-01
                       4.18181820E-01 -4.18181820E-01  4.18181820E-01
                       4.36363640E-01  4.36363640E-01  4.36363640E-01
                       4.36363640E-01 -4.36363640E-01  4.36363640E-01
                       4.54545450E-01  4.54545450E-01  4.54545450E-01
                       4.54545450E-01 -4.54545450E-01  4.54545450E-01
                       4.72727270E-01  4.72727270E-01  4.72727270E-01
                       4.72727270E-01 -4.72727270E-01  4.72727270E-01
                       4.90909090E-01  4.90909090E-01  4.90909090E-01
                       4.90909090E-01 -4.90909090E-01  4.90909090E-01
                       0.00000000E+00  0.00000000E+00 -3.12500000E-02
                       0.00000000E+00  0.00000000E+00 -6.25000000E-02
                       0.00000000E+00  0.00000000E+00 -9.37500000E-02
                       0.00000000E+00  0.00000000E+00 -1.25000000E-01
                       0.00000000E+00  0.00000000E+00 -1.56250000E-01
                       0.00000000E+00  0.00000000E+00 -1.87500000E-01
                       0.00000000E+00  0.00000000E+00 -2.18750000E-01
                       0.00000000E+00  0.00000000E+00 -2.50000000E-01
                       0.00000000E+00  0.00000000E+00 -2.81250000E-01
                       0.00000000E+00  0.00000000E+00 -3.12500000E-01
                       0.00000000E+00  0.00000000E+00 -3.43750000E-01
                       0.00000000E+00  0.00000000E+00 -3.75000000E-01
                       0.00000000E+00  0.00000000E+00 -4.06250000E-01
                       0.00000000E+00  0.00000000E+00 -4.37500000E-01
                       0.00000000E+00  0.00000000E+00 -4.68750000E-01
                       0.00000000E+00  0.00000000E+00  5.00000000E-01
           kptopt           0
P           mkmem         146
            natom          16
            nband         160
           nbdbuf           2
            ngfft          60      60      60
             nkpt         146
            nstep          50
             nsym           1
           ntypat           1
           occopt           7
           prtvol           2
          spgroup           1
           tolwfr      1.00000000E-12
           tsmear      5.00000000E-03 Hartree
            typat      1  1  1  1  1  1  1  1  1  1  1  1  1  1  1  1
           xangst      0.0000000000E+00  0.0000000000E+00  0.0000000000E+00
                       0.0000000000E+00  0.0000000000E+00  3.1618627471E+00
                       0.0000000000E+00  3.1618627471E+00  0.0000000000E+00
                       0.0000000000E+00  3.1618627471E+00  3.1618627471E+00
                       3.1618627471E+00  0.0000000000E+00  0.0000000000E+00
                       3.1618627471E+00  0.0000000000E+00  3.1618627471E+00
                       3.1618627471E+00  3.1618627471E+00  0.0000000000E+00
                       3.1618627471E+00  3.1618627471E+00  3.1618627471E+00
                       1.5809313735E+00  1.5809313735E+00  1.5809313735E+00
                       1.5809313735E+00  1.5809313735E+00  4.7427941206E+00
                       1.5809313735E+00  4.7427941206E+00  1.5809313735E+00
                       1.5809313735E+00  4.7427941206E+00  4.7427941206E+00
                       4.7427941206E+00  1.5809313735E+00  1.5809313735E+00
                       4.7427941206E+00  1.5809313735E+00  4.7427941206E+00
                       4.7427941206E+00  4.7427941206E+00  1.5809313735E+00
                       4.7427941206E+00  4.7427941206E+00  4.7427941206E+00
            xcart      0.0000000000E+00  0.0000000000E+00  0.0000000000E+00
                       0.0000000000E+00  0.0000000000E+00  5.9750546617E+00
                       0.0000000000E+00  5.9750546617E+00  0.0000000000E+00
                       0.0000000000E+00  5.9750546617E+00  5.9750546617E+00
                       5.9750546617E+00  0.0000000000E+00  0.0000000000E+00
                       5.9750546617E+00  0.0000000000E+00  5.9750546617E+00
                       5.9750546617E+00  5.9750546617E+00  0.0000000000E+00
                       5.9750546617E+00  5.9750546617E+00  5.9750546617E+00
                       2.9875273308E+00  2.9875273308E+00  2.9875273308E+00
                       2.9875273308E+00  2.9875273308E+00  8.9625819925E+00
                       2.9875273308E+00  8.9625819925E+00  2.9875273308E+00
                       2.9875273308E+00  8.9625819925E+00  8.9625819925E+00
                       8.9625819925E+00  2.9875273308E+00  2.9875273308E+00
                       8.9625819925E+00  2.9875273308E+00  8.9625819925E+00
                       8.9625819925E+00  8.9625819925E+00  2.9875273308E+00
                       8.9625819925E+00  8.9625819925E+00  8.9625819925E+00
             xred      0.0000000000E+00  0.0000000000E+00  0.0000000000E+00
                       0.0000000000E+00  0.0000000000E+00  5.0000000000E-01
                       0.0000000000E+00  5.0000000000E-01  0.0000000000E+00
                       0.0000000000E+00  5.0000000000E-01  5.0000000000E-01
                       5.0000000000E-01  0.0000000000E+00  0.0000000000E+00
                       5.0000000000E-01  0.0000000000E+00  5.0000000000E-01
                       5.0000000000E-01  5.0000000000E-01  0.0000000000E+00
                       5.0000000000E-01  5.0000000000E-01  5.0000000000E-01
                       2.5000000000E-01  2.5000000000E-01  2.5000000000E-01
                       2.5000000000E-01  2.5000000000E-01  7.5000000000E-01
                       2.5000000000E-01  7.5000000000E-01  2.5000000000E-01
                       2.5000000000E-01  7.5000000000E-01  7.5000000000E-01
                       7.5000000000E-01  2.5000000000E-01  2.5000000000E-01
                       7.5000000000E-01  2.5000000000E-01  7.5000000000E-01
                       7.5000000000E-01  7.5000000000E-01  2.5000000000E-01
                       7.5000000000E-01  7.5000000000E-01  7.5000000000E-01
            znucl       42.00000
 
================================================================================
 
 chkinp: Checking input parameters for consistency.
 
================================================================================
== DATASET  1 ==================================================================
-   mpi_nproc: 1, omp_nthreads: 64 (-1 if OMP is not activated)
 

--- !DatasetInfo
iteration_state: {dtset: 1, }
dimensions: {natom: 16, nkpt: 146, mband: 160, nsppol: 1, nspinor: 1, nspden: 1, mpw: 13448, }
cutoff_energies: {ecut:  30.0, pawecutdg:  -1.0, }
electrons: {nelect:   2.24000000E+02, charge:   0.00000000E+00, occopt:   7.00000000E+00, tsmear:   5.00000000E-03, }
meta: {optdriver: 0, ionmov: 0, optcell: 0, iscf: -2, paral_kgb: 0, }
...

 Exchange-correlation functional for the present dataset will be:
  GGA: Perdew-Burke-Ernzerhof functional - ixc=11
 Citation for XC functional:
  J.P.Perdew, K.Burke, M.Ernzerhof, PRL 77, 3865 (1996)
 
 Real(R)+Recip(G) space primitive vectors, cartesian coordinates (Bohr,Bohr^-1):
 R(1)= 11.9501093  0.0000000  0.0000000  G(1)=  0.0836812  0.0000000  0.0000000
 R(2)=  0.0000000 11.9501093  0.0000000  G(2)=  0.0000000  0.0836812  0.0000000
 R(3)=  0.0000000  0.0000000 11.9501093  G(3)=  0.0000000  0.0000000  0.0836812
 Unit cell volume ucvol=  1.7065367E+03 bohr^3
 Angles (23,13,12)=  9.00000000E+01  9.00000000E+01  9.00000000E+01 degrees
 
 getcut: wavevector=  0.0000  0.0000  0.0000  ngfft=  60  60  60
         ecut(hartree)=     30.000   => boxcut(ratio)=   2.03636
 
--- Pseudopotential description ------------------------------------------------
- pspini: atom type   1  psp file is /users/suryab/Project/pseudos/PSP/pseudo_dojo/Mo.psp8
- pspatm: opening atomic psp file    /users/suryab/Project/pseudos/PSP/pseudo_dojo/Mo.psp8
- Mo    ONCVPSP-3.2.3.1  r_core=   1.45541   1.45541   1.35488
- 42.00000  14.00000    170510                znucl, zion, pspdat
    8   11    2    4       600   0.00000      pspcod,pspxc,lmax,lloc,mmax,r2well
    5.99000000000000    3.00000000000000    0.00000000000000   rchrg,fchrg,qchrg
     nproj     2     2     2
     extension_switch     1
  pspatm : epsatm=   15.95693586
         --- l  ekb(1:nproj) -->
             0   13.833287    1.350687
             1    8.015347    1.134034
             2    2.765699    0.969071
 pspatm: atomic psp has been read  and splines computed
 
--------------------------------------------------------------------------------
 
P newkpt: treating    160 bands with npw=   13397 for ikpt=   1 by node    0
P newkpt: treating    160 bands with npw=   13349 for ikpt=   2 by node    0
P newkpt: treating    160 bands with npw=   13357 for ikpt=   3 by node    0
P newkpt: treating    160 bands with npw=   13377 for ikpt=   4 by node    0
P newkpt: treating    160 bands with npw=   13381 for ikpt=   5 by node    0
P newkpt: treating    160 bands with npw=   13397 for ikpt=   6 by node    0
P newkpt: treating    160 bands with npw=   13413 for ikpt=   7 by node    0
P newkpt: treating    160 bands with npw=   13417 for ikpt=   8 by node    0
P newkpt: treating    160 bands with npw=   13417 for ikpt=   9 by node    0
P newkpt: treating    160 bands with npw=   13386 for ikpt=  10 by node    0
P newkpt: treating    160 bands with npw=   13382 for ikpt=  11 by node    0
P newkpt: treating    160 bands with npw=   13374 for ikpt=  12 by node    0
P newkpt: treating    160 bands with npw=   13394 for ikpt=  13 by node    0
P newkpt: treating    160 bands with npw=   13410 for ikpt=  14 by node    0
P newkpt: treating    160 bands with npw=   13394 for ikpt=  15 by node    0
P newkpt: treating    160 bands with npw=   13398 for ikpt=  16 by node    0
P newkpt: treating    160 bands with npw=   13350 for ikpt=  17 by node    0
P newkpt: treating    160 bands with npw=   13398 for ikpt=  18 by node    0
P newkpt: treating    160 bands with npw=   13390 for ikpt=  19 by node    0
P newkpt: treating    160 bands with npw=   13386 for ikpt=  20 by node    0
P newkpt: treating    160 bands with npw=   13382 for ikpt=  21 by node    0
P newkpt: treating    160 bands with npw=   13350 for ikpt=  22 by node    0
P newkpt: treating    160 bands with npw=   13402 for ikpt=  23 by node    0
P newkpt: treating    160 bands with npw=   13410 for ikpt=  24 by node    0
P newkpt: treating    160 bands with npw=   13425 for ikpt=  25 by node    0
P newkpt: treating    160 bands with npw=   13425 for ikpt=  26 by node    0
P newkpt: treating    160 bands with npw=   13397 for ikpt=  27 by node    0
P newkpt: treating    160 bands with npw=   13397 for ikpt=  28 by node    0
P newkpt: treating    160 bands with npw=   13381 for ikpt=  29 by node    0
P newkpt: treating    160 bands with npw=   13381 for ikpt=  30 by node    0
P newkpt: treating    160 bands with npw=   13357 for ikpt=  31 by node    0
P newkpt: treating    160 bands with npw=   13349 for ikpt=  32 by node    0
P newkpt: treating    160 bands with npw=   13349 for ikpt=  33 by node    0
P newkpt: treating    160 bands with npw=   13349 for ikpt=  34 by node    0
P newkpt: treating    160 bands with npw=   13355 for ikpt=  35 by node    0
P newkpt: treating    160 bands with npw=   13355 for ikpt=  36 by node    0
P newkpt: treating    160 bands with npw=   13363 for ikpt=  37 by node    0
P newkpt: treating    160 bands with npw=   13363 for ikpt=  38 by node    0
P newkpt: treating    160 bands with npw=   13367 for ikpt=  39 by node    0
P newkpt: treating    160 bands with npw=   13367 for ikpt=  40 by node    0
P newkpt: treating    160 bands with npw=   13389 for ikpt=  41 by node    0
P newkpt: treating    160 bands with npw=   13389 for ikpt=  42 by node    0
P newkpt: treating    160 bands with npw=   13405 for ikpt=  43 by node    0
P newkpt: treating    160 bands with npw=   13405 for ikpt=  44 by node    0
P newkpt: treating    160 bands with npw=   13387 for ikpt=  45 by node    0
P newkpt: treating    160 bands with npw=   13387 for ikpt=  46 by node    0
P newkpt: treating    160 bands with npw=   13393 for ikpt=  47 by node    0
P newkpt: treating    160 bands with npw=   13393 for ikpt=  48 by node    0
P newkpt: treating    160 bands with npw=   13389 for ikpt=  49 by node    0
P newkpt: treating    160 bands with npw=   13389 for ikpt=  50 by node    0
P newkpt: treating    160 bands with npw=   13395 for ikpt=  51 by node    0
P newkpt: treating    160 bands with npw=   13395 for ikpt=  52 by node    0
P newkpt: treating    160 bands with npw=   13393 for ikpt=  53 by node    0
P newkpt: treating    160 bands with npw=   13393 for ikpt=  54 by node    0
P newkpt: treating    160 bands with npw=   13383 for ikpt=  55 by node    0
P newkpt: treating    160 bands with npw=   13383 for ikpt=  56 by node    0
P newkpt: treating    160 bands with npw=   13407 for ikpt=  57 by node    0
P newkpt: treating    160 bands with npw=   13407 for ikpt=  58 by node    0
P newkpt: treating    160 bands with npw=   13419 for ikpt=  59 by node    0
P newkpt: treating    160 bands with npw=   13419 for ikpt=  60 by node    0
P newkpt: treating    160 bands with npw=   13425 for ikpt=  61 by node    0
P newkpt: treating    160 bands with npw=   13425 for ikpt=  62 by node    0
P newkpt: treating    160 bands with npw=   13433 for ikpt=  63 by node    0
P newkpt: treating    160 bands with npw=   13433 for ikpt=  64 by node    0
P newkpt: treating    160 bands with npw=   13417 for ikpt=  65 by node    0
P newkpt: treating    160 bands with npw=   13417 for ikpt=  66 by node    0
P newkpt: treating    160 bands with npw=   13407 for ikpt=  67 by node    0
P newkpt: treating    160 bands with npw=   13407 for ikpt=  68 by node    0
P newkpt: treating    160 bands with npw=   13410 for ikpt=  69 by node    0
P newkpt: treating    160 bands with npw=   13410 for ikpt=  70 by node    0
P newkpt: treating    160 bands with npw=   13414 for ikpt=  71 by node    0
P newkpt: treating    160 bands with npw=   13414 for ikpt=  72 by node    0
P newkpt: treating    160 bands with npw=   13430 for ikpt=  73 by node    0
P newkpt: treating    160 bands with npw=   13430 for ikpt=  74 by node    0
P newkpt: treating    160 bands with npw=   13448 for ikpt=  75 by node    0
P newkpt: treating    160 bands with npw=   13448 for ikpt=  76 by node    0
P newkpt: treating    160 bands with npw=   13355 for ikpt=  77 by node    0
P newkpt: treating    160 bands with npw=   13355 for ikpt=  78 by node    0
P newkpt: treating    160 bands with npw=   13358 for ikpt=  79 by node    0
P newkpt: treating    160 bands with npw=   13358 for ikpt=  80 by node    0
P newkpt: treating    160 bands with npw=   13370 for ikpt=  81 by node    0
P newkpt: treating    160 bands with npw=   13370 for ikpt=  82 by node    0
P newkpt: treating    160 bands with npw=   13358 for ikpt=  83 by node    0
P newkpt: treating    160 bands with npw=   13358 for ikpt=  84 by node    0
P newkpt: treating    160 bands with npw=   13385 for ikpt=  85 by node    0
P newkpt: treating    160 bands with npw=   13385 for ikpt=  86 by node    0
P newkpt: treating    160 bands with npw=   13385 for ikpt=  87 by node    0
P newkpt: treating    160 bands with npw=   13385 for ikpt=  88 by node    0
P newkpt: treating    160 bands with npw=   13388 for ikpt=  89 by node    0
P newkpt: treating    160 bands with npw=   13388 for ikpt=  90 by node    0
P newkpt: treating    160 bands with npw=   13394 for ikpt=  91 by node    0
P newkpt: treating    160 bands with npw=   13394 for ikpt=  92 by node    0
P newkpt: treating    160 bands with npw=   13400 for ikpt=  93 by node    0
P newkpt: treating    160 bands with npw=   13400 for ikpt=  94 by node    0
P newkpt: treating    160 bands with npw=   13382 for ikpt=  95 by node    0
P newkpt: treating    160 bands with npw=   13382 for ikpt=  96 by node    0
P newkpt: treating    160 bands with npw=   13385 for ikpt=  97 by node    0
P newkpt: treating    160 bands with npw=   13385 for ikpt=  98 by node    0
P newkpt: treating    160 bands with npw=   13388 for ikpt=  99 by node    0
P newkpt: treating    160 bands with npw=   13388 for ikpt= 100 by node    0
P newkpt: treating    160 bands with npw=   13391 for ikpt= 101 by node    0
P newkpt: treating    160 bands with npw=   13391 for ikpt= 102 by node    0
P newkpt: treating    160 bands with npw=   13388 for ikpt= 103 by node    0
P newkpt: treating    160 bands with npw=   13388 for ikpt= 104 by node    0
P newkpt: treating    160 bands with npw=   13373 for ikpt= 105 by node    0
P newkpt: treating    160 bands with npw=   13373 for ikpt= 106 by node    0
P newkpt: treating    160 bands with npw=   13388 for ikpt= 107 by node    0
P newkpt: treating    160 bands with npw=   13388 for ikpt= 108 by node    0
P newkpt: treating    160 bands with npw=   13385 for ikpt= 109 by node    0
P newkpt: treating    160 bands with npw=   13385 for ikpt= 110 by node    0
P newkpt: treating    160 bands with npw=   13385 for ikpt= 111 by node    0
P newkpt: treating    160 bands with npw=   13385 for ikpt= 112 by node    0
P newkpt: treating    160 bands with npw=   13391 for ikpt= 113 by node    0
P newkpt: treating    160 bands with npw=   13391 for ikpt= 114 by node    0
P newkpt: treating    160 bands with npw=   13391 for ikpt= 115 by node    0
P newkpt: treating    160 bands with npw=   13391 for ikpt= 116 by node    0
P newkpt: treating    160 bands with npw=   13388 for ikpt= 117 by node    0
P newkpt: treating    160 bands with npw=   13388 for ikpt= 118 by node    0
P newkpt: treating    160 bands with npw=   13394 for ikpt= 119 by node    0
P newkpt: treating    160 bands with npw=   13394 for ikpt= 120 by node    0
P newkpt: treating    160 bands with npw=   13385 for ikpt= 121 by node    0
P newkpt: treating    160 bands with npw=   13385 for ikpt= 122 by node    0
P newkpt: treating    160 bands with npw=   13388 for ikpt= 123 by node    0
P newkpt: treating    160 bands with npw=   13388 for ikpt= 124 by node    0
P newkpt: treating    160 bands with npw=   13382 for ikpt= 125 by node    0
P newkpt: treating    160 bands with npw=   13382 for ikpt= 126 by node    0
P newkpt: treating    160 bands with npw=   13352 for ikpt= 127 by node    0
P newkpt: treating    160 bands with npw=   13352 for ikpt= 128 by node    0
P newkpt: treating    160 bands with npw=   13385 for ikpt= 129 by node    0
P newkpt: treating    160 bands with npw=   13385 for ikpt= 130 by node    0
P newkpt: treating    160 bands with npw=   13349 for ikpt= 131 by node    0
P newkpt: treating    160 bands with npw=   13357 for ikpt= 132 by node    0
P newkpt: treating    160 bands with npw=   13377 for ikpt= 133 by node    0
P newkpt: treating    160 bands with npw=   13381 for ikpt= 134 by node    0
P newkpt: treating    160 bands with npw=   13397 for ikpt= 135 by node    0
P newkpt: treating    160 bands with npw=   13413 for ikpt= 136 by node    0
P newkpt: treating    160 bands with npw=   13417 for ikpt= 137 by node    0
P newkpt: treating    160 bands with npw=   13401 for ikpt= 138 by node    0
P newkpt: treating    160 bands with npw=   13402 for ikpt= 139 by node    0
P newkpt: treating    160 bands with npw=   13390 for ikpt= 140 by node    0
P newkpt: treating    160 bands with npw=   13374 for ikpt= 141 by node    0
P newkpt: treating    160 bands with npw=   13386 for ikpt= 142 by node    0
P newkpt: treating    160 bands with npw=   13394 for ikpt= 143 by node    0
P newkpt: treating    160 bands with npw=   13386 for ikpt= 144 by node    0
P newkpt: treating    160 bands with npw=   13406 for ikpt= 145 by node    0
P newkpt: treating    160 bands with npw=   13350 for ikpt= 146 by node    0
 
================================================================================
 prteigrs : about to open file trf2_1o_EIG
 Non-SCF case, kpt    1 (  0.00000  0.00000  0.00000), residuals and eigenvalues=
  4.24E-13  4.03E-13  3.34E-13  3.57E-13  3.55E-13  2.98E-13  3.04E-13  3.48E-13
  3.39E-13  3.24E-13  3.62E-13  2.49E-13  2.13E-13  3.45E-13  2.46E-13  2.31E-13
  1.29E-13  1.57E-13  1.46E-13  7.66E-13  1.16E-13  1.69E-13  3.94E-13  6.05E-13
  2.46E-13  1.67E-13  1.56E-13  1.46E-13  1.02E-13  1.36E-13  1.30E-13  2.88E-13
  6.86E-13  2.23E-13  3.16E-13  4.51E-13  1.28E-13  9.08E-13  1.49E-13  1.29E-13
  1.23E-13  1.54E-13  1.48E-13  1.28E-13  1.58E-13  2.28E-13  9.19E-14  1.57E-13
  1.08E-13  1.55E-13  1.70E-13  2.24E-13  1.46E-13  1.23E-13  2.99E-13  1.85E-13
  1.06E-13  1.68E-13  1.49E-13  2.02E-13  2.11E-13  1.26E-13  1.83E-13  1.74E-13
  1.61E-13  2.96E-13  4.07E-13  5.68E-13  2.72E-13  1.95E-13  7.00E-13  6.36E-13
  3.51E-13  9.50E-14  1.89E-13  1.58E-13  2.67E-13  6.53E-13  6.93E-13  8.24E-13
  8.72E-13  5.25E-13  4.31E-13  6.97E-13  9.11E-13  5.83E-13  2.01E-13  5.93E-13
  9.76E-13  2.18E-13  7.61E-13  1.93E-13  8.18E-13  5.84E-13  9.17E-13  5.52E-13
  9.82E-13  4.46E-13  2.50E-13  2.89E-13  4.48E-13  3.41E-13  6.36E-13  8.47E-13
  7.28E-13  6.52E-13  5.88E-13  7.97E-13  7.43E-13  6.96E-13  5.78E-13  9.32E-13
  8.12E-13  8.20E-13  8.81E-13  9.97E-13  8.11E-13  8.15E-13  3.09E-13  3.40E-13
  6.34E-13  6.43E-13  5.49E-13  6.08E-13  4.42E-13  7.64E-13  6.19E-13  5.84E-13
  4.61E-13  6.31E-13  6.11E-13  5.14E-13  4.83E-13  9.16E-13  7.08E-13  9.28E-13
  4.65E-13  7.68E-13  8.36E-13  9.49E-13  2.58E-13  5.56E-13  7.31E-13  3.13E-13
  6.29E-13  5.13E-13  3.78E-13  8.65E-13  7.10E-13  4.71E-13  7.78E-13  6.65E-13
  9.69E-13  8.40E-13  1.82E-13  1.55E-13  1.64E-13  3.39E-13  2.02E-07  1.55E-06
 -1.6271E+00 -1.6185E+00 -1.6185E+00 -1.6185E+00 -1.6185E+00 -1.6185E+00
 -1.6185E+00 -1.6177E+00 -1.6177E+00 -1.6177E+00 -1.6177E+00 -1.6177E+00
 -1.6177E+00 -1.6170E+00 -1.6170E+00 -1.6112E+00 -6.9464E-01 -6.9464E-01
 -6.9464E-01 -6.9464E-01 -6.9464E-01 -6.9464E-01 -6.7933E-01 -6.7933E-01
 -6.7933E-01 -6.7156E-01 -6.7156E-01 -6.7156E-01 -6.7156E-01 -6.7156E-01
 -6.7156E-01 -6.7006E-01 -6.7006E-01 -6.7006E-01 -6.7006E-01 -6.7006E-01
 -6.7006E-01 -6.6185E-01 -6.6185E-01 -6.6185E-01 -6.6185E-01 -6.6185E-01
 -6.6185E-01 -6.6185E-01 -6.6185E-01 -6.6185E-01 -6.6185E-01 -6.6185E-01
 -6.6185E-01 -6.6078E-01 -6.6078E-01 -6.6078E-01 -6.6078E-01 -6.6078E-01
 -6.6078E-01 -6.4532E-01 -6.4532E-01 -6.4532E-01 -6.4532E-01 -6.4532E-01
 -6.4532E-01 -6.4510E-01 -6.4510E-01 -6.4510E-01  3.6137E-01  4.2896E-01
  4.2896E-01  4.3264E-01  4.3264E-01  4.3264E-01  4.3264E-01  4.3264E-01
  4.3264E-01  4.8862E-01  4.8862E-01  4.8862E-01  4.8862E-01  4.8862E-01
  4.8862E-01  5.0270E-01  5.0270E-01  5.0270E-01  5.0270E-01  5.0270E-01
  5.0270E-01  5.2958E-01  5.2958E-01  5.2958E-01  5.2958E-01  5.2958E-01
  5.2958E-01  5.3024E-01  5.3024E-01  5.3024E-01  5.3024E-01  5.3024E-01
  5.3024E-01  5.7641E-01  5.7641E-01  5.7641E-01  6.0337E-01  6.0337E-01
  6.0337E-01  6.0337E-01  6.0337E-01  6.0337E-01  6.0337E-01  6.0337E-01
  6.0337E-01  6.0337E-01  6.0337E-01  6.0337E-01  6.5757E-01  6.5757E-01
  6.5757E-01  6.5757E-01  6.5757E-01  6.5757E-01  6.8386E-01  6.8386E-01
  6.8386E-01  6.8386E-01  6.8386E-01  6.8386E-01  6.8584E-01  6.8584E-01
  6.8676E-01  6.8676E-01  6.8676E-01  6.8676E-01  6.8676E-01  6.8676E-01
  7.0943E-01  7.0943E-01  7.0943E-01  7.0943E-01  7.0943E-01  7.0943E-01
  7.1388E-01  7.1388E-01  7.1388E-01  7.1388E-01  7.4964E-01  7.4964E-01
  7.4964E-01  7.4964E-01  7.4964E-01  7.4964E-01  7.6963E-01  7.6963E-01
  7.6963E-01  7.9711E-01  7.9711E-01  7.9711E-01  7.9711E-01  7.9711E-01
  7.9711E-01  9.5689E-01  9.5689E-01  9.5690E-01
 Non-SCF case, kpt    2 (  0.00000  0.03175  0.00000), residuals and eigenvalues=
  4.37E-13  3.82E-13  5.16E-13  3.70E-13  4.39E-13  3.44E-13  3.43E-13  3.60E-13
  3.69E-13  2.80E-13  2.84E-13  2.66E-13  3.29E-13  3.75E-13  2.06E-13  2.49E-13
  1.31E-13  1.73E-13  1.14E-13  1.12E-13  1.93E-13  1.52E-13  1.01E-13  8.82E-13
  1.05E-13  9.21E-13  7.81E-13  1.22E-13  9.30E-14  1.05E-13  1.15E-13  1.15E-13
  1.04E-13  2.21E-13  1.46E-13  1.18E-13  9.79E-14  6.88E-13  1.28E-13  6.67E-13
  3.30E-13  1.15E-13  2.50E-13  1.13E-13  2.00E-13  1.33E-13  9.36E-14  1.15E-13
  1.22E-13  8.74E-14  1.19E-13  6.08E-13  2.05E-13  7.17E-13  2.50E-13  1.57E-13
  9.16E-13  2.86E-13  8.19E-13  1.24E-13  1.50E-13  1.00E-13  1.21E-13  1.62E-13
  6.09E-13  4.67E-13  4.97E-13  7.43E-13  8.04E-13  6.87E-13  2.55E-13  7.13E-13
  8.89E-13  3.05E-13  2.24E-13  7.70E-13  2.07E-13  1.56E-13  2.09E-13  6.59E-13
  5.98E-13  6.21E-13  5.98E-13  3.94E-13  3.76E-13  9.01E-13  5.24E-13  7.64E-13
  5.52E-13  3.07E-13  6.74E-13  2.51E-13  7.01E-13  3.64E-13  8.95E-13  5.81E-13
  8.90E-13  3.76E-13  5.20E-13  3.37E-13  2.58E-13  3.45E-13  4.06E-13  2.73E-13
  3.23E-13  2.82E-13  8.03E-13  4.24E-13  4.36E-13  5.15E-13  5.77E-13  5.98E-13
  5.33E-13  7.09E-13  8.61E-13  7.39E-13  9.61E-13  2.13E-13  4.48E-13  5.49E-13
  5.71E-13  8.44E-13  4.38E-13  3.13E-13  5.09E-13  4.86E-13  8.32E-13  6.58E-13
  8.26E-13  7.97E-13  5.48E-13  7.10E-13  7.96E-13  7.92E-13  5.30E-13  4.02E-13
  7.79E-13  7.76E-13  9.71E-13  5.47E-13  9.14E-13  7.06E-13  9.56E-13  9.98E-13
  6.28E-13  8.36E-13  5.70E-13  6.21E-13  5.14E-13  9.75E-13  8.28E-13  4.10E-13
  7.67E-13  3.08E-13  3.55E-13  8.74E-13  9.57E-13  9.14E-13  1.76E-12  5.40E-12
 -1.6270E+00 -1.6189E+00 -1.6185E+00 -1.6185E+00 -1.6185E+00 -1.6185E+00
 -1.6181E+00 -1.6177E+00 -1.6177E+00 -1.6177E+00 -1.6177E+00 -1.6177E+00
 -1.6177E+00 -1.6170E+00 -1.6170E+00 -1.6113E+00 -6.9461E-01 -6.9461E-01
 -6.9460E-01 -6.9460E-01 -6.9460E-01 -6.9460E-01 -6.7934E-01 -6.7931E-01
 -6.7931E-01 -6.7234E-01 -6.7169E-01 -6.7169E-01 -6.7169E-01 -6.7169E-01
 -6.7129E-01 -6.7129E-01 -6.7069E-01 -6.7004E-01 -6.7004E-01 -6.6883E-01
 -6.6883E-01 -6.6268E-01 -6.6268E-01 -6.6181E-01 -6.6181E-01 -6.6181E-01
 -6.6181E-01 -6.6168E-01 -6.6168E-01 -6.6168E-01 -6.6168E-01 -6.6095E-01
 -6.6095E-01 -6.6080E-01 -6.6080E-01 -6.6078E-01 -6.6078E-01 -6.6078E-01
 -6.6078E-01 -6.4535E-01 -6.4535E-01 -6.4534E-01 -6.4534E-01 -6.4534E-01
 -6.4534E-01 -6.4514E-01 -6.4512E-01 -6.4512E-01  3.6158E-01  4.2907E-01
  4.2914E-01  4.3276E-01  4.3276E-01  4.3276E-01  4.3276E-01  4.3284E-01
  4.3284E-01  4.8555E-01  4.8860E-01  4.8860E-01  4.8860E-01  4.8860E-01
  4.9112E-01  5.0269E-01  5.0269E-01  5.0284E-01  5.0284E-01  5.0284E-01
  5.0284E-01  5.2373E-01  5.2720E-01  5.2720E-01  5.2949E-01  5.2949E-01
  5.2949E-01  5.2949E-01  5.2993E-01  5.2993E-01  5.3348E-01  5.3348E-01
  5.3556E-01  5.7640E-01  5.7640E-01  5.7650E-01  6.0015E-01  6.0015E-01
  6.0255E-01  6.0255E-01  6.0255E-01  6.0255E-01  6.0376E-01  6.0376E-01
  6.0376E-01  6.0376E-01  6.0683E-01  6.0683E-01  6.5301E-01  6.5849E-01
  6.5849E-01  6.5849E-01  6.5849E-01  6.6223E-01  6.8135E-01  6.8135E-01
  6.8135E-01  6.8135E-01  6.8319E-01  6.8319E-01  6.8557E-01  6.8594E-01
  6.8682E-01  6.8682E-01  6.8700E-01  6.8700E-01  6.8700E-01  6.8700E-01
  7.0944E-01  7.0944E-01  7.1120E-01  7.1120E-01  7.1120E-01  7.1120E-01
  7.1380E-01  7.1380E-01  7.1387E-01  7.1387E-01  7.4619E-01  7.4969E-01
  7.4969E-01  7.4969E-01  7.4969E-01  7.5340E-01  7.6899E-01  7.6899E-01
  7.6946E-01  7.9686E-01  7.9686E-01  7.9686E-01  7.9686E-01  7.9789E-01
  7.9789E-01  9.5628E-01  9.5775E-01  9.5775E-01
 Non-SCF case, kpt    3 (  0.00000  0.06349  0.00000), residuals and eigenvalues=
  5.77E-13  4.04E-13  3.89E-13  3.24E-13  3.60E-13  3.81E-13  3.47E-13  2.72E-13
  3.98E-13  2.96E-13  4.13E-13  2.49E-13  3.76E-13  3.49E-13  2.90E-13  3.05E-13
  1.70E-13  1.46E-13  1.34E-13  1.26E-13  7.67E-13  3.09E-13  1.63E-13  1.36E-13
  1.18E-13  9.42E-13  1.69E-13  1.36E-13  1.38E-13  1.21E-13  1.90E-13  7.63E-13
  1.71E-13  1.52E-13  9.95E-14  1.16E-13  1.40E-13  1.64E-13  9.39E-14  8.26E-13
  1.93E-13  1.21E-13  1.47E-13  1.77E-13  1.09E-13  1.21E-13  1.26E-13  1.62E-13
  9.13E-14  5.02E-13  4.94E-13  1.35E-13  1.32E-13  1.53E-13  2.06E-13  1.94E-13
  1.56E-13  1.99E-13  1.42E-13  1.73E-13  1.42E-13  1.36E-13  9.73E-14  2.08E-13
  9.83E-13  6.83E-13  9.88E-13  6.12E-13  2.46E-13  2.38E-13  6.97E-13  8.52E-13
  9.71E-13  7.48E-13  6.40E-13  3.14E-13  3.45E-13  2.31E-13  4.23E-13  5.47E-13
  4.97E-13  5.93E-13  4.60E-13  6.72E-13  3.99E-13  6.57E-13  3.19E-13  3.08E-13
  6.12E-13  4.98E-13  3.38E-13  2.80E-13  2.35E-13  5.74E-13  3.20E-13  3.40E-13
  9.31E-13  8.41E-13  2.72E-13  4.89E-13  3.22E-13  4.82E-13  3.08E-13  4.07E-13
  3.92E-13  9.04E-13  8.94E-13  5.44E-13  9.08E-13  4.14E-13  4.29E-13  2.35E-13
  8.36E-13  1.98E-13  2.49E-13  7.69E-13  8.29E-13  3.52E-13  7.96E-13  5.07E-13
  7.53E-13  6.97E-13  3.21E-13  2.50E-13  9.59E-13  9.54E-13  4.84E-13  5.67E-13
  7.10E-13  3.32E-13  8.79E-13  4.35E-13  2.91E-13  9.05E-13  8.42E-13  6.92E-13
  5.21E-13  2.79E-13  7.12E-13  3.52E-13  4.62E-13  7.73E-13  7.40E-13  3.01E-13
  7.68E-13  3.59E-13  9.29E-13  7.87E-13  3.74E-13  4.63E-13  6.52E-13  6.31E-13
  9.53E-13  5.40E-13  9.02E-13  4.50E-13  3.07E-13  7.07E-13  8.81E-11  1.83E-10
 -1.6270E+00 -1.6193E+00 -1.6185E+00 -1.6185E+00 -1.6185E+00 -1.6185E+00
 -1.6178E+00 -1.6178E+00 -1.6178E+00 -1.6178E+00 -1.6177E+00 -1.6177E+00
 -1.6177E+00 -1.6170E+00 -1.6170E+00 -1.6113E+00 -6.9452E-01 -6.9452E-01
 -6.9449E-01 -6.9449E-01 -6.9449E-01 -6.9449E-01 -6.7934E-01 -6.7925E-01
 -6.7925E-01 -6.7311E-01 -6.7252E-01 -6.7252E-01 -6.7212E-01 -6.7212E-01
 -6.7212E-01 -6.7212E-01 -6.6997E-01 -6.6997E-01 -6.6979E-01 -6.6760E-01
 -6.6760E-01 -6.6354E-01 -6.6354E-01 -6.6180E-01 -6.6180E-01 -6.6180E-01
 -6.6180E-01 -6.6130E-01 -6.6130E-01 -6.6130E-01 -6.6130E-01 -6.6090E-01
 -6.6090E-01 -6.6079E-01 -6.6079E-01 -6.6079E-01 -6.6079E-01 -6.6009E-01
 -6.6009E-01 -6.4546E-01 -6.4546E-01 -6.4546E-01 -6.4546E-01 -6.4545E-01
 -6.4545E-01 -6.4514E-01 -6.4514E-01 -6.4513E-01  3.6221E-01  4.2940E-01
  4.2968E-01  4.3312E-01  4.3312E-01  4.3312E-01  4.3312E-01  4.3343E-01
  4.3343E-01  4.8195E-01  4.8851E-01  4.8851E-01  4.8851E-01  4.8851E-01
  4.9299E-01  5.0266E-01  5.0266E-01  5.0325E-01  5.0325E-01  5.0325E-01
  5.0325E-01  5.1800E-01  5.2437E-01  5.2437E-01  5.2902E-01  5.2902E-01
  5.2924E-01  5.2924E-01  5.2924E-01  5.2924E-01  5.3692E-01  5.3692E-01
  5.4164E-01  5.7637E-01  5.7637E-01  5.7677E-01  5.9715E-01  5.9715E-01
  6.0022E-01  6.0022E-01  6.0022E-01  6.0022E-01  6.0489E-01  6.0489E-01
  6.0489E-01  6.0489E-01  6.1053E-01  6.1053E-01  6.4851E-01  6.6107E-01
  6.6107E-01  6.6107E-01  6.6107E-01  6.6694E-01  6.7585E-01  6.7585E-01
  6.7585E-01  6.7585E-01  6.8124E-01  6.8124E-01  6.8475E-01  6.8624E-01
  6.8682E-01  6.8682E-01  6.8682E-01  6.8682E-01  6.8699E-01  6.8699E-01
  7.0947E-01  7.0947E-01  7.1356E-01  7.1356E-01  7.1384E-01  7.1384E-01
  7.1537E-01  7.1537E-01  7.1537E-01  7.1537E-01  7.4298E-01  7.4984E-01
  7.4984E-01  7.4984E-01  7.4984E-01  7.5750E-01  7.6712E-01  7.6712E-01
  7.6894E-01  7.9611E-01  7.9611E-01  7.9611E-01  7.9611E-01  8.0018E-01
  8.0018E-01  9.5447E-01  9.6029E-01  9.6029E-01
 Non-SCF case, kpt    4 (  0.00000  0.09524  0.00000), residuals and eigenvalues=
  4.99E-13  5.08E-13  3.18E-13  3.85E-13  3.13E-13  3.40E-13  3.73E-13  4.10E-13
  3.25E-13  3.35E-13  3.92E-13  2.83E-13  2.88E-13  3.92E-13  3.00E-13  2.50E-13
  1.82E-13  3.18E-13  1.99E-13  2.28E-13  1.64E-13  2.34E-13  9.89E-14  1.46E-13
  1.93E-13  9.50E-14  1.98E-13  1.52E-13  2.36E-13  1.81E-13  1.87E-13  1.25E-13
  1.57E-13  1.06E-13  1.81E-13  1.59E-13  1.20E-13  5.55E-13  2.61E-13  1.04E-13
  2.58E-13  3.88E-13  8.18E-13  1.76E-13  1.09E-13  2.63E-13  1.67E-13  7.37E-13
  4.17E-13  1.43E-13  1.50E-13  2.11E-13  1.94E-13  1.95E-13  1.01E-13  2.13E-13
  1.88E-13  1.98E-13  1.96E-13  2.56E-13  1.59E-13  1.54E-13  2.53E-13  2.02E-13
  2.42E-13  3.97E-13  5.60E-13  6.39E-13  9.21E-13  2.87E-13  4.26E-13  3.62E-13
  6.87E-13  1.82E-13  4.75E-13  3.88E-13  1.30E-13  8.32E-13  8.76E-13  3.78E-13
  3.53E-13  5.05E-13  9.54E-13  2.21E-13  9.45E-13  8.12E-13  4.09E-13  2.40E-13
  2.45E-13  2.25E-13  2.78E-13  4.31E-13  2.70E-13  5.01E-13  5.63E-13  8.16E-13
  7.37E-13  4.38E-13  3.10E-13  3.25E-13  2.86E-13  3.71E-13  8.27E-13  7.19E-13
  4.66E-13  9.22E-13  4.53E-13  5.22E-13  5.72E-13  2.47E-13  9.02E-13  3.60E-13
  3.20E-13  3.43E-13  3.50E-13  2.92E-13  9.30E-13  7.83E-13  7.42E-13  2.09E-13
  3.43E-13  4.42E-13  7.13E-13  4.33E-13  7.33E-13  4.63E-13  4.72E-13  8.09E-13
  7.60E-13  2.83E-13  2.64E-13  2.91E-13  5.64E-13  2.47E-13  8.72E-13  5.79E-13
  3.81E-13  3.98E-13  7.25E-13  6.27E-13  5.48E-13  6.56E-13  2.67E-13  7.42E-13
  8.07E-13  8.75E-13  2.64E-13  8.19E-13  8.01E-13  8.34E-13  4.87E-13  4.03E-13
  9.23E-13  9.46E-13  5.09E-13  2.04E-13  4.33E-13  5.83E-13  7.13E-10  1.83E-08
 -1.6269E+00 -1.6197E+00 -1.6185E+00 -1.6185E+00 -1.6185E+00 -1.6185E+00
 -1.6178E+00 -1.6178E+00 -1.6178E+00 -1.6178E+00 -1.6177E+00 -1.6177E+00
 -1.6173E+00 -1.6170E+00 -1.6170E+00 -1.6113E+00 -6.9437E-01 -6.9437E-01
 -6.9430E-01 -6.9430E-01 -6.9430E-01 -6.9430E-01 -6.7935E-01 -6.7914E-01
 -6.7914E-01 -6.7382E-01 -6.7375E-01 -6.7375E-01 -6.7277E-01 -6.7277E-01
 -6.7277E-01 -6.7277E-01 -6.6992E-01 -6.6992E-01 -6.6884E-01 -6.6639E-01
 -6.6639E-01 -6.6439E-01 -6.6439E-01 -6.6179E-01 -6.6179E-01 -6.6179E-01
 -6.6179E-01 -6.6101E-01 -6.6101E-01 -6.6081E-01 -6.6081E-01 -6.6081E-01
 -6.6081E-01 -6.6073E-01 -6.6073E-01 -6.6073E-01 -6.6073E-01 -6.5924E-01
 -6.5924E-01 -6.4561E-01 -6.4561E-01 -6.4559E-01 -6.4559E-01 -6.4559E-01
 -6.4559E-01 -6.4535E-01 -6.4521E-01 -6.4521E-01  3.6324E-01  4.2993E-01
  4.3056E-01  4.3372E-01  4.3372E-01  4.3372E-01  4.3372E-01  4.3442E-01
  4.3442E-01  4.7787E-01  4.8830E-01  4.8830E-01  4.8830E-01  4.8830E-01
  4.9423E-01  5.0262E-01  5.0262E-01  5.0394E-01  5.0394E-01  5.0394E-01
  5.0394E-01  5.1240E-01  5.2173E-01  5.2173E-01  5.2750E-01  5.2750E-01
  5.2895E-01  5.2895E-01  5.2895E-01  5.2895E-01  5.4056E-01  5.4056E-01
  5.4782E-01  5.7630E-01  5.7630E-01  5.7723E-01  5.9438E-01  5.9438E-01
  5.9676E-01  5.9676E-01  5.9676E-01  5.9676E-01  6.0671E-01  6.0671E-01
  6.0671E-01  6.0671E-01  6.1446E-01  6.1446E-01  6.4410E-01  6.6495E-01
  6.6495E-01  6.6495E-01  6.6495E-01  6.6897E-01  6.6897E-01  6.6897E-01
  6.6897E-01  6.7170E-01  6.7814E-01  6.7814E-01  6.8341E-01  6.8617E-01
  6.8617E-01  6.8617E-01  6.8617E-01  6.8671E-01  6.8727E-01  6.8727E-01
  7.0953E-01  7.0953E-01  7.1315E-01  7.1315E-01  7.1378E-01  7.1378E-01
  7.2041E-01  7.2041E-01  7.2041E-01  7.2041E-01  7.3997E-01  7.5008E-01
  7.5008E-01  7.5008E-01  7.5008E-01  7.6200E-01  7.6411E-01  7.6411E-01
  7.6808E-01  7.9486E-01  7.9486E-01  7.9486E-01  7.9486E-01  8.0382E-01
  8.0382E-01  9.5151E-01  9.6442E-01  9.6442E-01
 Non-SCF case, kpt    5 (  0.00000  0.12698  0.00000), residuals and eigenvalues=
  5.80E-13  3.96E-13  4.00E-13  3.83E-13  3.32E-13  2.91E-13  3.74E-13  3.39E-13
  3.21E-13  3.11E-13  4.57E-13  3.38E-13  3.46E-13  2.66E-13  3.47E-13  3.19E-13
  1.57E-13  2.11E-13  1.53E-13  1.11E-13  6.51E-13  2.86E-13  1.50E-13  8.59E-13
  2.55E-13  4.17E-13  7.84E-13  2.32E-13  1.32E-13  1.66E-13  9.66E-13  2.12E-13
  1.61E-13  1.01E-13  1.04E-13  1.59E-13  1.77E-13  1.15E-13  1.82E-13  4.28E-13
  3.09E-13  5.38E-13  2.88E-13  1.37E-13  1.85E-13  1.09E-13  1.08E-13  1.06E-13
  1.27E-13  1.27E-13  1.39E-13  1.30E-13  1.23E-13  1.24E-13  1.27E-13  6.13E-13
  2.12E-13  7.71E-13  2.54E-13  9.95E-14  2.29E-13  2.62E-13  1.24E-13  1.10E-13
  2.41E-13  5.19E-13  7.82E-13  2.07E-13  6.95E-13  3.33E-13  1.67E-13  4.20E-13
  8.60E-13  3.83E-13  3.64E-13  6.08E-13  9.32E-13  2.68E-13  1.52E-13  7.60E-13
  2.46E-13  9.92E-13  5.91E-13  9.90E-13  3.03E-13  6.02E-13  6.18E-13  3.25E-13
  4.34E-13  7.01E-13  9.03E-13  3.67E-13  3.82E-13  5.06E-13  3.08E-13  9.69E-13
  3.88E-13  2.26E-13  2.03E-13  2.59E-13  4.11E-13  8.08E-13  6.68E-13  6.12E-13
  2.17E-13  2.66E-13  3.86E-13  9.50E-13  6.92E-13  6.71E-13  3.05E-13  4.62E-13
  9.89E-13  9.80E-13  5.32E-13  4.43E-13  6.52E-13  7.19E-13  9.04E-13  5.61E-13
  5.88E-13  4.77E-13  2.96E-13  6.09E-13  8.12E-13  9.64E-13  6.68E-13  7.59E-13
  9.70E-13  4.07E-13  4.27E-13  2.91E-13  4.80E-13  2.78E-13  9.10E-13  3.24E-13
  8.76E-13  4.35E-13  3.74E-13  6.36E-13  5.00E-13  3.67E-13  9.75E-13  7.42E-13
  3.91E-13  5.44E-13  2.91E-13  9.98E-13  7.11E-13  7.17E-13  7.73E-13  4.87E-13
  6.04E-13  9.19E-13  1.88E-13  3.04E-13  2.77E-13  6.58E-13  9.24E-07  4.09E-06
 -1.6268E+00 -1.6201E+00 -1.6185E+00 -1.6185E+00 -1.6185E+00 -1.6185E+00
 -1.6178E+00 -1.6178E+00 -1.6178E+00 -1.6178E+00 -1.6177E+00 -1.6177E+00
 -1.6170E+00 -1.6170E+00 -1.6170E+00 -1.6114E+00 -6.9416E-01 -6.9416E-01
 -6.9402E-01 -6.9402E-01 -6.9402E-01 -6.9402E-01 -6.7936E-01 -6.7898E-01
 -6.7898E-01 -6.7496E-01 -6.7496E-01 -6.7449E-01 -6.7359E-01 -6.7359E-01
 -6.7359E-01 -6.7359E-01 -6.6976E-01 -6.6976E-01 -6.6786E-01 -6.6524E-01
 -6.6524E-01 -6.6518E-01 -6.6518E-01 -6.6177E-01 -6.6177E-01 -6.6177E-01
 -6.6177E-01 -6.6116E-01 -6.6116E-01 -6.6084E-01 -6.6084E-01 -6.6084E-01
 -6.6084E-01 -6.6002E-01 -6.6002E-01 -6.6002E-01 -6.6002E-01 -6.5840E-01
 -6.5840E-01 -6.4586E-01 -6.4586E-01 -6.4574E-01 -6.4574E-01 -6.4574E-01
 -6.4574E-01 -6.4567E-01 -6.4535E-01 -6.4535E-01  3.6466E-01  4.3069E-01
  4.3179E-01  4.3455E-01  4.3455E-01  4.3455E-01  4.3455E-01  4.3580E-01
  4.3580E-01  4.7336E-01  4.8789E-01  4.8789E-01  4.8789E-01  4.8789E-01
  4.9483E-01  5.0256E-01  5.0256E-01  5.0491E-01  5.0491E-01  5.0491E-01
  5.0491E-01  5.0694E-01  5.1929E-01  5.1929E-01  5.2543E-01  5.2543E-01
  5.2879E-01  5.2879E-01  5.2879E-01  5.2879E-01  5.4441E-01  5.4441E-01
  5.5409E-01  5.7620E-01  5.7620E-01  5.7785E-01  5.9183E-01  5.9183E-01
  5.9252E-01  5.9252E-01  5.9252E-01  5.9252E-01  6.0913E-01  6.0913E-01
  6.0913E-01  6.0913E-01  6.1862E-01  6.1862E-01  6.3978E-01  6.6139E-01
  6.6139E-01  6.6139E-01  6.6139E-01  6.6978E-01  6.6978E-01  6.6978E-01
  6.6978E-01  6.7411E-01  6.7411E-01  6.7650E-01  6.8153E-01  6.8517E-01
  6.8517E-01  6.8517E-01  6.8517E-01  6.8737E-01  6.8766E-01  6.8766E-01
  7.0960E-01  7.0960E-01  7.1259E-01  7.1259E-01  7.1370E-01  7.1370E-01
  7.2556E-01  7.2556E-01  7.2556E-01  7.2556E-01  7.3712E-01  7.5041E-01
  7.5041E-01  7.5041E-01  7.5041E-01  7.6010E-01  7.6010E-01  7.6688E-01
  7.6692E-01  7.9314E-01  7.9314E-01  7.9314E-01  7.9314E-01  8.0863E-01
  8.0863E-01  9.4748E-01  9.7000E-01  9.7006E-01
 Non-SCF case, kpt    6 (  0.00000  0.15873  0.00000), residuals and eigenvalues=
  4.00E-13  3.77E-13  2.92E-13  4.96E-13  4.09E-13  2.43E-13  3.51E-13  3.36E-13
  3.07E-13  2.04E-13  2.53E-13  2.97E-13  2.65E-13  2.97E-13  2.87E-13  2.53E-13
  1.42E-13  2.26E-13  1.18E-13  1.17E-13  1.25E-13  1.75E-13  9.32E-13  8.50E-13
  3.20E-13  4.20E-13  5.81E-13  1.18E-13  1.40E-13  1.16E-13  1.18E-13  1.02E-13
  2.43E-13  1.20E-13  1.17E-13  1.42E-13  1.27E-13  5.97E-13  3.07E-13  2.51E-13
  8.19E-13  1.58E-13  1.86E-13  1.68E-13  1.42E-13  1.05E-13  1.22E-13  1.19E-13
  1.25E-13  9.46E-13  1.85E-13  1.56E-13  1.20E-13  8.02E-13  3.09E-13  4.60E-13
  3.83E-13  8.82E-13  5.58E-13  3.07E-13  1.54E-13  2.20E-13  1.42E-13  1.54E-13
  1.57E-13  8.18E-13  5.82E-13  6.85E-13  4.70E-13  3.88E-13  3.12E-13  1.44E-13
  2.34E-13  4.09E-13  3.63E-13  4.47E-13  2.47E-13  1.72E-13  1.23E-13  7.86E-13
  9.12E-13  3.02E-13  3.20E-13  7.26E-13  3.19E-13  5.06E-13  5.88E-13  3.04E-13
  9.85E-13  9.47E-13  2.78E-13  9.75E-13  4.44E-13  8.04E-13  9.85E-13  7.05E-13
  7.51E-13  7.97E-13  4.92E-13  6.13E-13  7.18E-13  9.25E-13  4.44E-13  6.13E-13
  5.90E-13  5.51E-13  4.99E-13  4.71E-13  6.39E-13  1.78E-13  2.42E-13  9.54E-13
  3.60E-13  5.21E-13  6.32E-13  6.94E-13  5.90E-13  5.44E-13  6.01E-13  2.95E-13
  5.17E-13  5.75E-13  5.51E-13  9.42E-13  5.35E-13  7.22E-13  6.02E-13  7.20E-13
  4.61E-13  3.59E-13  4.80E-13  4.81E-13  3.90E-13  3.71E-13  4.38E-13  7.54E-13
  5.56E-13  6.21E-13  2.76E-13  2.11E-13  7.41E-13  6.89E-13  8.96E-13  8.32E-13
  4.05E-13  3.99E-13  9.92E-13  2.80E-13  9.09E-13  2.75E-13  3.40E-13  3.29E-13
  6.57E-13  3.96E-13  5.25E-13  3.07E-13  9.15E-13  8.92E-13  6.54E-07  2.55E-06
 -1.6267E+00 -1.6205E+00 -1.6185E+00 -1.6185E+00 -1.6185E+00 -1.6185E+00
 -1.6178E+00 -1.6178E+00 -1.6178E+00 -1.6178E+00 -1.6177E+00 -1.6177E+00
 -1.6171E+00 -1.6171E+00 -1.6166E+00 -1.6114E+00 -6.9388E-01 -6.9388E-01
 -6.9368E-01 -6.9368E-01 -6.9368E-01 -6.9368E-01 -6.7937E-01 -6.7879E-01
 -6.7879E-01 -6.7617E-01 -6.7617E-01 -6.7517E-01 -6.7452E-01 -6.7452E-01
 -6.7452E-01 -6.7452E-01 -6.6958E-01 -6.6958E-01 -6.6683E-01 -6.6609E-01
 -6.6609E-01 -6.6403E-01 -6.6403E-01 -6.6175E-01 -6.6175E-01 -6.6175E-01
 -6.6175E-01 -6.6136E-01 -6.6136E-01 -6.6086E-01 -6.6086E-01 -6.6086E-01
 -6.6086E-01 -6.5925E-01 -6.5925E-01 -6.5925E-01 -6.5925E-01 -6.5757E-01
 -6.5757E-01 -6.4614E-01 -6.4614E-01 -6.4607E-01 -6.4594E-01 -6.4594E-01
 -6.4594E-01 -6.4594E-01 -6.4547E-01 -6.4547E-01  3.6649E-01  4.3165E-01
  4.3336E-01  4.3562E-01  4.3562E-01  4.3562E-01  4.3562E-01  4.3756E-01
  4.3756E-01  4.6848E-01  4.8717E-01  4.8717E-01  4.8717E-01  4.8717E-01
  4.9479E-01  5.0164E-01  5.0251E-01  5.0251E-01  5.0616E-01  5.0616E-01
  5.0616E-01  5.0616E-01  5.1705E-01  5.1705E-01  5.2284E-01  5.2284E-01
  5.2895E-01  5.2895E-01  5.2895E-01  5.2895E-01  5.4846E-01  5.4846E-01
  5.6044E-01  5.7609E-01  5.7609E-01  5.7866E-01  5.8781E-01  5.8781E-01
  5.8781E-01  5.8781E-01  5.8950E-01  5.8950E-01  6.1205E-01  6.1205E-01
  6.1205E-01  6.1205E-01  6.2302E-01  6.2302E-01  6.3556E-01  6.5341E-01
  6.5341E-01  6.5341E-01  6.5341E-01  6.6933E-01  6.6933E-01  6.7524E-01
  6.7524E-01  6.7524E-01  6.7524E-01  6.7917E-01  6.8134E-01  6.8386E-01
  6.8386E-01  6.8386E-01  6.8386E-01  6.8816E-01  6.8816E-01  6.8821E-01
  7.0969E-01  7.0969E-01  7.1190E-01  7.1190E-01  7.1360E-01  7.1360E-01
  7.3047E-01  7.3047E-01  7.3047E-01  7.3047E-01  7.3437E-01  7.5082E-01
  7.5082E-01  7.5082E-01  7.5082E-01  7.5526E-01  7.5526E-01  7.6535E-01
  7.7227E-01  7.9093E-01  7.9093E-01  7.9093E-01  7.9093E-01  8.1439E-01
  8.1439E-01  9.4246E-01  9.7685E-01  9.7846E-01
 Non-SCF case, kpt    7 (  0.00000  0.19048  0.00000), residuals and eigenvalues=
  3.64E-13  3.17E-13  3.17E-13  3.26E-13  3.23E-13  3.03E-13  4.17E-13  3.36E-13
  4.95E-13  2.07E-13  3.19E-13  2.95E-13  3.77E-13  3.06E-13  3.50E-13  2.43E-13
  1.42E-13  1.23E-13  1.64E-13  1.08E-13  4.68E-13  2.90E-13  1.68E-13  1.05E-13
  1.30E-13  1.19E-13  1.17E-13  1.51E-13  1.17E-13  1.22E-13  1.25E-13  1.40E-13
  1.76E-13  9.59E-14  8.69E-13  2.02E-13  1.41E-13  9.61E-13  1.26E-13  6.90E-13
  1.11E-13  8.57E-13  2.17E-13  1.10E-13  1.31E-13  7.52E-13  1.42E-13  5.98E-13
  4.32E-13  1.23E-13  1.05E-13  1.28E-13  1.98E-13  1.21E-13  1.51E-13  1.57E-13
  1.15E-13  9.50E-14  2.00E-13  1.42E-13  1.08E-13  1.73E-13  1.06E-13  2.26E-13
  9.34E-13  9.00E-13  3.43E-13  6.97E-13  9.68E-13  5.73E-13  6.66E-13  7.24E-13
  5.26E-13  3.56E-13  2.66E-13  5.64E-13  2.72E-13  5.12E-13  6.29E-13  6.72E-13
  3.28E-13  8.00E-13  2.33E-13  6.08E-13  8.53E-13  3.58E-13  5.22E-13  3.02E-13
  5.24E-13  7.26E-13  8.56E-13  2.64E-13  5.87E-13  2.95E-13  8.32E-13  5.21E-13
  8.16E-13  2.43E-13  2.46E-13  3.30E-13  4.02E-13  3.59E-13  3.23E-13  3.13E-13
  2.67E-13  5.11E-13  7.63E-13  8.74E-13  9.02E-13  9.24E-13  3.61E-13  1.75E-13
  9.20E-13  6.41E-13  9.88E-13  7.22E-13  6.50E-13  4.86E-13  6.74E-13  5.89E-13
  8.82E-13  7.86E-13  7.34E-13  7.39E-13  9.40E-13  8.36E-13  1.00E-12  5.82E-13
  3.51E-13  8.10E-13  8.65E-13  6.86E-13  1.83E-13  8.43E-13  2.92E-13  8.95E-13
  6.64E-13  8.71E-13  2.34E-13  4.40E-13  8.29E-13  4.30E-13  8.61E-13  9.20E-13
  4.22E-13  5.84E-13  3.76E-13  6.34E-13  5.00E-13  3.19E-13  5.53E-13  4.57E-13
  3.35E-13  5.13E-13  5.98E-13  3.25E-13  3.93E-13  3.28E-13  1.89E-06  4.30E-05
 -1.6266E+00 -1.6209E+00 -1.6184E+00 -1.6184E+00 -1.6184E+00 -1.6184E+00
 -1.6178E+00 -1.6178E+00 -1.6178E+00 -1.6178E+00 -1.6177E+00 -1.6177E+00
 -1.6171E+00 -1.6171E+00 -1.6162E+00 -1.6115E+00 -6.9356E-01 -6.9356E-01
 -6.9327E-01 -6.9327E-01 -6.9327E-01 -6.9327E-01 -6.7934E-01 -6.7854E-01
 -6.7854E-01 -6.7736E-01 -6.7736E-01 -6.7574E-01 -6.7553E-01 -6.7553E-01
 -6.7553E-01 -6.7553E-01 -6.6935E-01 -6.6935E-01 -6.6693E-01 -6.6693E-01
 -6.6585E-01 -6.6284E-01 -6.6284E-01 -6.6173E-01 -6.6173E-01 -6.6173E-01
 -6.6173E-01 -6.6165E-01 -6.6165E-01 -6.6089E-01 -6.6089E-01 -6.6089E-01
 -6.6089E-01 -6.5842E-01 -6.5842E-01 -6.5842E-01 -6.5842E-01 -6.5679E-01
 -6.5679E-01 -6.4656E-01 -6.4648E-01 -6.4648E-01 -6.4618E-01 -6.4618E-01
 -6.4618E-01 -6.4618E-01 -6.4569E-01 -6.4569E-01  3.6870E-01  4.3284E-01
  4.3525E-01  4.3692E-01  4.3692E-01  4.3692E-01  4.3692E-01  4.3970E-01
  4.3970E-01  4.6326E-01  4.8607E-01  4.8607E-01  4.8607E-01  4.8607E-01
  4.9415E-01  4.9649E-01  5.0245E-01  5.0245E-01  5.0767E-01  5.0767E-01
  5.0767E-01  5.0767E-01  5.1500E-01  5.1500E-01  5.1977E-01  5.1977E-01
  5.2961E-01  5.2961E-01  5.2961E-01  5.2961E-01  5.5272E-01  5.5272E-01
  5.6685E-01  5.7597E-01  5.7597E-01  5.7964E-01  5.8282E-01  5.8282E-01
  5.8282E-01  5.8282E-01  5.8738E-01  5.8738E-01  6.1536E-01  6.1536E-01
  6.1536E-01  6.1536E-01  6.2765E-01  6.2765E-01  6.3145E-01  6.4521E-01
  6.4521E-01  6.4521E-01  6.4521E-01  6.6400E-01  6.6400E-01  6.7631E-01
  6.8113E-01  6.8113E-01  6.8113E-01  6.8113E-01  6.8225E-01  6.8225E-01
  6.8225E-01  6.8225E-01  6.8619E-01  6.8876E-01  6.8876E-01  6.8923E-01
  7.0981E-01  7.0981E-01  7.1108E-01  7.1108E-01  7.1348E-01  7.1348E-01
  7.3169E-01  7.3501E-01  7.3501E-01  7.3501E-01  7.3501E-01  7.4976E-01
  7.4976E-01  7.5130E-01  7.5130E-01  7.5130E-01  7.5130E-01  7.6351E-01
  7.7809E-01  7.8828E-01  7.8828E-01  7.8828E-01  7.8828E-01  8.2093E-01
  8.2093E-01  9.3660E-01  9.8025E-01  9.8338E-01
 Non-SCF case, kpt    8 (  0.00000  0.22222  0.00000), residuals and eigenvalues=
  4.87E-13  3.10E-13  3.36E-13  2.97E-13  3.46E-13  2.51E-13  3.17E-13  2.62E-13
  2.61E-13  2.55E-13  3.12E-13  2.70E-13  3.31E-13  2.60E-13  3.09E-13  8.71E-13
  1.33E-13  1.46E-13  1.37E-13  9.03E-13  1.09E-13  1.37E-13  7.83E-13  1.01E-13
  1.31E-13  8.23E-13  2.19E-13  9.55E-13  1.16E-13  7.11E-13  1.39E-13  1.48E-13
  1.00E-13  8.97E-14  7.79E-13  1.05E-13  1.27E-13  8.39E-13  1.31E-13  1.13E-13
  1.16E-13  1.54E-13  2.18E-13  1.10E-13  8.19E-14  4.30E-13  5.61E-13  1.97E-13
  6.73E-13  1.49E-13  1.10E-13  6.31E-13  9.47E-13  1.59E-13  1.65E-13  1.72E-13
  1.59E-13  1.88E-13  8.29E-13  1.87E-13  8.06E-13  1.92E-13  1.21E-13  1.57E-13
  6.85E-13  2.52E-13  4.19E-13  8.06E-13  3.55E-13  6.58E-13  2.57E-13  3.36E-13
  3.58E-13  3.23E-13  7.81E-13  3.06E-13  7.62E-13  8.48E-13  2.23E-13  5.73E-13
  8.34E-13  9.46E-13  3.10E-13  6.35E-13  9.01E-13  3.57E-13  2.71E-13  3.30E-13
  5.81E-13  2.82E-13  9.43E-13  2.00E-13  4.08E-13  9.40E-13  9.73E-13  4.92E-13
  1.92E-13  7.80E-13  1.92E-13  2.31E-13  2.36E-13  2.71E-13  2.21E-13  4.07E-13
  2.24E-13  6.62E-13  5.91E-13  7.77E-13  8.11E-13  6.83E-13  2.91E-13  2.62E-13
  2.75E-13  4.47E-13  4.36E-13  2.56E-13  6.23E-13  8.18E-13  2.29E-13  9.75E-13
  4.73E-13  5.95E-13  4.09E-13  6.56E-13  5.55E-13  4.14E-13  3.18E-13  7.89E-13
  4.96E-13  5.68E-13  8.56E-13  5.38E-13  4.22E-13  2.45E-13  6.27E-13  2.69E-13
  7.30E-13  6.11E-13  6.37E-13  5.59E-13  8.79E-13  8.01E-13  2.23E-13  3.01E-13
  7.41E-13  2.29E-13  5.51E-13  6.59E-13  9.29E-13  7.77E-13  3.97E-13  2.97E-13
  8.94E-13  7.89E-13  6.82E-13  7.95E-13  9.16E-13  5.09E-13  3.53E-06  1.81E-05
 -1.6265E+00 -1.6213E+00 -1.6184E+00 -1.6184E+00 -1.6184E+00 -1.6184E+00
 -1.6178E+00 -1.6178E+00 -1.6178E+00 -1.6178E+00 -1.6177E+00 -1.6177E+00
 -1.6171E+00 -1.6171E+00 -1.6159E+00 -1.6116E+00 -6.9317E-01 -6.9317E-01
 -6.9281E-01 -6.9281E-01 -6.9281E-01 -6.9281E-01 -6.7929E-01 -6.7855E-01
 -6.7855E-01 -6.7825E-01 -6.7825E-01 -6.7657E-01 -6.7657E-01 -6.7657E-01
 -6.7657E-01 -6.7625E-01 -6.6907E-01 -6.6907E-01 -6.6775E-01 -6.6775E-01
 -6.6477E-01 -6.6193E-01 -6.6193E-01 -6.6169E-01 -6.6169E-01 -6.6169E-01
 -6.6169E-01 -6.6167E-01 -6.6167E-01 -6.6092E-01 -6.6092E-01 -6.6092E-01
 -6.6092E-01 -6.5757E-01 -6.5757E-01 -6.5757E-01 -6.5757E-01 -6.5598E-01
 -6.5598E-01 -6.4714E-01 -6.4687E-01 -6.4687E-01 -6.4647E-01 -6.4647E-01
 -6.4647E-01 -6.4647E-01 -6.4596E-01 -6.4596E-01  3.7129E-01  4.3423E-01
  4.3745E-01  4.3844E-01  4.3844E-01  4.3844E-01  4.3844E-01  4.4219E-01
  4.4219E-01  4.5783E-01  4.8454E-01  4.8454E-01  4.8454E-01  4.8454E-01
  4.9149E-01  4.9293E-01  5.0240E-01  5.0240E-01  5.0946E-01  5.0946E-01
  5.0946E-01  5.0946E-01  5.1313E-01  5.1313E-01  5.1627E-01  5.1627E-01
  5.3090E-01  5.3090E-01  5.3090E-01  5.3090E-01  5.5716E-01  5.5716E-01
  5.7330E-01  5.7585E-01  5.7585E-01  5.7769E-01  5.7769E-01  5.7769E-01
  5.7769E-01  5.8079E-01  5.8547E-01  5.8547E-01  6.1897E-01  6.1897E-01
  6.1897E-01  6.1897E-01  6.2746E-01  6.3252E-01  6.3252E-01  6.3690E-01
  6.3690E-01  6.3690E-01  6.3690E-01  6.5827E-01  6.5827E-01  6.7299E-01
  6.8037E-01  6.8037E-01  6.8037E-01  6.8037E-01  6.8731E-01  6.8731E-01
  6.8731E-01  6.8731E-01  6.8947E-01  6.8947E-01  6.9042E-01  6.9105E-01
  7.0994E-01  7.0994E-01  7.1013E-01  7.1013E-01  7.1334E-01  7.1334E-01
  7.2906E-01  7.3908E-01  7.3908E-01  7.3908E-01  7.3908E-01  7.4375E-01
  7.4375E-01  7.5183E-01  7.5183E-01  7.5183E-01  7.5183E-01  7.6135E-01
  7.8437E-01  7.8518E-01  7.8518E-01  7.8518E-01  7.8518E-01  8.2809E-01
  8.2809E-01  9.2998E-01  9.8204E-01  9.8273E-01
 Non-SCF case, kpt    9 (  0.00000  0.25397  0.00000), residuals and eigenvalues=
  4.93E-13  3.69E-13  2.73E-13  3.48E-13  2.69E-13  3.68E-13  2.74E-13  2.86E-13
  3.32E-13  3.66E-13  2.93E-13  2.92E-13  3.40E-13  2.75E-13  4.29E-13  2.95E-13
  1.25E-13  1.26E-13  1.16E-13  1.60E-13  1.28E-13  1.67E-13  5.05E-13  5.27E-13
  8.13E-13  7.70E-13  1.68E-13  1.09E-13  1.42E-13  1.04E-13  1.37E-13  1.42E-13
  1.56E-13  1.27E-13  8.66E-13  2.83E-13  1.30E-13  1.95E-13  2.01E-13  4.68E-13
  5.26E-13  7.65E-13  2.33E-13  1.38E-13  1.34E-13  4.97E-13  5.21E-13  1.77E-13
  1.34E-13  1.33E-13  1.76E-13  1.72E-13  1.85E-13  1.31E-13  1.16E-13  1.23E-13
  1.86E-13  1.77E-13  2.65E-13  1.10E-13  1.27E-13  1.11E-13  1.07E-13  1.07E-13
  1.85E-13  1.85E-13  2.35E-13  6.73E-13  7.08E-13  8.37E-13  8.99E-13  2.39E-13
  1.60E-13  4.10E-13  3.38E-13  1.62E-13  6.46E-13  6.45E-13  5.23E-13  2.70E-13
  3.87E-13  4.11E-13  6.77E-13  4.47E-13  3.72E-13  3.88E-13  4.20E-13  3.93E-13
  6.36E-13  6.26E-13  5.98E-13  7.03E-13  4.85E-13  2.87E-13  3.91E-13  2.03E-13
  1.39E-13  4.67E-13  6.80E-13  3.27E-13  4.36E-13  6.01E-13  5.34E-13  7.88E-13
  1.66E-13  4.01E-13  8.79E-13  7.30E-13  6.00E-13  1.96E-13  5.43E-13  7.87E-13
  5.96E-13  8.18E-13  8.76E-13  3.14E-13  2.39E-13  3.41E-13  3.03E-13  8.72E-13
  4.79E-13  6.75E-13  7.11E-13  6.71E-13  9.46E-13  3.04E-13  8.98E-13  2.13E-13
  4.02E-13  8.80E-13  2.52E-13  7.71E-13  2.17E-13  3.24E-13  2.70E-13  5.89E-13
  8.07E-13  4.60E-13  9.89E-13  4.07E-13  9.61E-13  8.27E-13  9.33E-13  5.29E-13
  2.05E-13  9.99E-13  6.28E-13  4.08E-13  9.48E-13  5.25E-13  5.70E-13  9.40E-13
  4.36E-13  4.67E-13  8.22E-13  4.80E-13  5.11E-13  4.18E-13  5.20E-07  5.25E-05
 -1.6263E+00 -1.6217E+00 -1.6184E+00 -1.6184E+00 -1.6184E+00 -1.6184E+00
 -1.6179E+00 -1.6179E+00 -1.6179E+00 -1.6179E+00 -1.6176E+00 -1.6176E+00
 -1.6171E+00 -1.6171E+00 -1.6155E+00 -1.6118E+00 -6.9271E-01 -6.9271E-01
 -6.9226E-01 -6.9226E-01 -6.9226E-01 -6.9226E-01 -6.7969E-01 -6.7969E-01
 -6.7929E-01 -6.7793E-01 -6.7793E-01 -6.7765E-01 -6.7765E-01 -6.7765E-01
 -6.7765E-01 -6.7672E-01 -6.6876E-01 -6.6876E-01 -6.6856E-01 -6.6856E-01
 -6.6367E-01 -6.6226E-01 -6.6226E-01 -6.6165E-01 -6.6165E-01 -6.6165E-01
 -6.6165E-01 -6.6096E-01 -6.6096E-01 -6.6096E-01 -6.6096E-01 -6.6053E-01
 -6.6053E-01 -6.5673E-01 -6.5673E-01 -6.5673E-01 -6.5673E-01 -6.5520E-01
 -6.5520E-01 -6.4779E-01 -6.4732E-01 -6.4732E-01 -6.4680E-01 -6.4680E-01
 -6.4680E-01 -6.4680E-01 -6.4622E-01 -6.4622E-01  3.7426E-01  4.3584E-01
  4.3994E-01  4.4018E-01  4.4018E-01  4.4018E-01  4.4018E-01  4.4502E-01
  4.4502E-01  4.5222E-01  4.8258E-01  4.8258E-01  4.8258E-01  4.8258E-01
  4.8667E-01  4.9118E-01  5.0236E-01  5.0236E-01  5.1144E-01  5.1144E-01
  5.1151E-01  5.1151E-01  5.1151E-01  5.1151E-01  5.1241E-01  5.1241E-01
  5.3289E-01  5.3289E-01  5.3289E-01  5.3289E-01  5.6181E-01  5.6181E-01
  5.7252E-01  5.7252E-01  5.7252E-01  5.7252E-01  5.7574E-01  5.7574E-01
  5.7980E-01  5.8213E-01  5.8376E-01  5.8376E-01  6.2281E-01  6.2281E-01
  6.2281E-01  6.2281E-01  6.2358E-01  6.2857E-01  6.2857E-01  6.2857E-01
  6.2857E-01  6.3762E-01  6.3762E-01  6.5228E-01  6.5228E-01  6.6926E-01
  6.7822E-01  6.7822E-01  6.7822E-01  6.7822E-01  6.9028E-01  6.9028E-01
  6.9178E-01  6.9367E-01  6.9367E-01  6.9367E-01  6.9367E-01  6.9590E-01
  7.0909E-01  7.0909E-01  7.1009E-01  7.1009E-01  7.1319E-01  7.1319E-01
  7.2646E-01  7.3735E-01  7.3735E-01  7.4266E-01  7.4266E-01  7.4266E-01
  7.4266E-01  7.5239E-01  7.5239E-01  7.5239E-01  7.5239E-01  7.5891E-01
  7.8167E-01  7.8167E-01  7.8167E-01  7.8167E-01  7.9110E-01  8.3572E-01
  8.3572E-01  9.2267E-01  9.7669E-01  9.7835E-01
 Non-SCF case, kpt   10 (  0.00000  0.28571  0.00000), residuals and eigenvalues=
  4.10E-13  3.81E-13  2.98E-13  2.89E-13  3.88E-13  2.38E-13  3.37E-13  3.16E-13
  4.04E-13  2.73E-13  2.86E-13  2.90E-13  2.96E-13  3.85E-13  2.43E-13  2.60E-13
  1.22E-13  9.45E-14  9.56E-13  1.74E-13  1.07E-13  1.13E-13  5.15E-13  4.45E-13
  1.08E-13  9.49E-13  8.40E-13  8.06E-13  1.14E-13  6.36E-13  1.24E-13  1.20E-13
  7.18E-13  1.36E-13  1.38E-13  9.45E-14  1.04E-13  9.80E-14  1.72E-13  6.98E-13
  4.14E-13  4.71E-13  7.10E-13  6.39E-13  1.64E-13  3.63E-13  6.68E-13  7.90E-13
  3.31E-13  1.41E-13  1.09E-13  1.53E-13  1.42E-13  9.03E-13  1.63E-13  1.14E-13
  1.47E-13  1.53E-13  1.21E-13  2.34E-13  1.38E-13  6.86E-13  2.90E-13  6.20E-13
  3.06E-13  2.64E-13  6.49E-13  3.74E-13  9.47E-13  1.98E-13  2.26E-13  1.77E-13
  1.40E-13  2.35E-13  2.59E-13  3.17E-13  9.31E-13  3.62E-13  7.91E-13  7.76E-13
  3.35E-13  9.28E-13  6.81E-13  2.97E-13  5.42E-13  8.78E-13  7.37E-13  7.85E-13
  7.54E-13  6.32E-13  4.31E-13  4.01E-13  4.63E-13  3.54E-13  3.08E-13  9.83E-13
  2.72E-13  3.45E-13  2.23E-13  2.66E-13  4.28E-13  7.43E-13  4.72E-13  2.91E-13
  9.63E-13  9.43E-13  7.27E-13  3.06E-13  6.87E-13  6.01E-13  2.83E-13  5.46E-13
  6.65E-13  6.69E-13  5.89E-13  9.65E-13  2.71E-13  7.71E-13  9.11E-13  6.57E-13
  8.75E-13  2.84E-13  8.37E-13  5.28E-13  6.80E-13  4.35E-13  2.99E-13  2.73E-13
  6.62E-13  3.05E-13  5.78E-13  2.48E-13  5.09E-13  8.50E-13  3.85E-13  6.34E-13
  7.87E-13  3.82E-13  9.87E-13  2.45E-13  4.59E-13  3.33E-13  5.45E-13  4.61E-13
  4.86E-13  3.34E-13  2.11E-13  5.78E-13  1.91E-13  8.42E-13  8.65E-13  6.49E-13
  9.89E-13  2.32E-13  5.49E-13  3.55E-13  7.25E-13  7.61E-13  5.29E-06  1.00E-04
 -1.6261E+00 -1.6221E+00 -1.6184E+00 -1.6184E+00 -1.6184E+00 -1.6184E+00
 -1.6179E+00 -1.6179E+00 -1.6179E+00 -1.6179E+00 -1.6176E+00 -1.6176E+00
 -1.6172E+00 -1.6172E+00 -1.6152E+00 -1.6119E+00 -6.9221E-01 -6.9221E-01
 -6.9163E-01 -6.9163E-01 -6.9163E-01 -6.9163E-01 -6.8081E-01 -6.8081E-01
 -6.7929E-01 -6.7875E-01 -6.7875E-01 -6.7875E-01 -6.7875E-01 -6.7757E-01
 -6.7757E-01 -6.7713E-01 -6.6932E-01 -6.6932E-01 -6.6839E-01 -6.6839E-01
 -6.6262E-01 -6.6262E-01 -6.6255E-01 -6.6161E-01 -6.6161E-01 -6.6161E-01
 -6.6161E-01 -6.6100E-01 -6.6100E-01 -6.6100E-01 -6.6100E-01 -6.5938E-01
 -6.5938E-01 -6.5585E-01 -6.5585E-01 -6.5585E-01 -6.5585E-01 -6.5443E-01
 -6.5443E-01 -6.4851E-01 -6.4783E-01 -6.4783E-01 -6.4717E-01 -6.4717E-01
 -6.4717E-01 -6.4717E-01 -6.4656E-01 -6.4656E-01  3.7757E-01  4.3766E-01
  4.4213E-01  4.4213E-01  4.4213E-01  4.4213E-01  4.4270E-01  4.4648E-01
  4.4818E-01  4.4818E-01  4.8023E-01  4.8023E-01  4.8023E-01  4.8023E-01
  4.8201E-01  4.8896E-01  5.0235E-01  5.0235E-01  5.0823E-01  5.0823E-01
  5.0994E-01  5.0994E-01  5.1382E-01  5.1382E-01  5.1382E-01  5.1382E-01
  5.3558E-01  5.3558E-01  5.3558E-01  5.3558E-01  5.6665E-01  5.6665E-01
  5.6738E-01  5.6738E-01  5.6738E-01  5.6738E-01  5.7564E-01  5.7564E-01
  5.8225E-01  5.8225E-01  5.8363E-01  5.8631E-01  6.1983E-01  6.2029E-01
  6.2029E-01  6.2029E-01  6.2029E-01  6.2680E-01  6.2680E-01  6.2680E-01
  6.2680E-01  6.4294E-01  6.4294E-01  6.4608E-01  6.4608E-01  6.6512E-01
  6.7582E-01  6.7582E-01  6.7582E-01  6.7582E-01  6.9117E-01  6.9117E-01
  6.9329E-01  7.0013E-01  7.0013E-01  7.0013E-01  7.0013E-01  7.0075E-01
  7.0795E-01  7.0795E-01  7.1025E-01  7.1025E-01  7.1302E-01  7.1302E-01
  7.2388E-01  7.3068E-01  7.3068E-01  7.4575E-01  7.4575E-01  7.4575E-01
  7.4575E-01  7.5298E-01  7.5298E-01  7.5298E-01  7.5298E-01  7.5618E-01
  7.7776E-01  7.7776E-01  7.7776E-01  7.7776E-01  7.9827E-01  8.4377E-01
  8.4377E-01  9.1484E-01  9.6739E-01  9.6787E-01
 Non-SCF case, kpt   11 (  0.00000  0.31746  0.00000), residuals and eigenvalues=
  3.12E-13  2.98E-13  2.70E-13  2.66E-13  3.03E-13  1.98E-13  2.84E-13  3.20E-13
  3.10E-13  2.11E-13  2.30E-13  2.90E-13  2.40E-13  2.31E-13  2.90E-13  8.35E-13
  8.51E-13  2.72E-13  1.35E-13  1.39E-13  9.46E-14  1.28E-13  1.16E-13  1.80E-13
  1.61E-13  8.91E-13  9.09E-13  1.06E-13  1.33E-13  8.86E-13  4.07E-13  6.55E-13
  1.07E-13  9.21E-14  1.14E-13  1.41E-13  1.14E-13  1.25E-13  8.90E-13  1.72E-13
  2.29E-13  7.91E-13  9.14E-13  7.67E-13  1.92E-13  1.24E-13  1.19E-13  1.43E-13
  1.11E-13  1.38E-13  1.40E-13  9.26E-14  9.27E-14  5.46E-13  1.24E-13  1.38E-13
  5.02E-13  4.88E-13  1.39E-13  1.04E-13  9.63E-13  1.23E-13  8.31E-13  2.17E-13
  8.20E-13  2.11E-13  7.18E-13  6.01E-13  2.06E-13  2.37E-13  1.52E-13  3.16E-13
  4.45E-13  3.42E-13  2.61E-13  4.18E-13  5.83E-13  3.70E-13  2.45E-13  4.10E-13
  5.58E-13  3.96E-13  4.19E-13  2.25E-13  5.43E-13  4.23E-13  2.29E-13  4.47E-13
  7.90E-13  9.28E-13  8.57E-13  9.83E-13  9.00E-13  3.23E-13  4.32E-13  6.40E-13
  1.76E-13  3.41E-13  1.78E-13  4.91E-13  4.43E-13  3.97E-13  3.72E-13  1.62E-13
  5.20E-13  4.13E-13  3.69E-13  8.27E-13  2.27E-13  2.35E-13  3.28E-13  2.83E-13
  2.71E-13  7.57E-13  6.24E-13  4.96E-13  6.42E-13  6.40E-13  5.52E-13  7.11E-13
  8.97E-13  5.39E-13  3.82E-13  4.53E-13  9.49E-13  3.37E-13  7.89E-13  8.88E-13
  2.09E-13  3.37E-13  2.40E-13  3.27E-13  2.16E-13  8.77E-13  3.69E-13  4.97E-13
  8.40E-13  3.54E-13  6.52E-13  8.66E-13  2.44E-13  6.17E-13  5.36E-13  4.42E-13
  3.86E-13  7.77E-13  5.50E-13  2.60E-13  9.76E-13  9.86E-13  9.62E-13  7.68E-13
  5.23E-13  6.12E-13  4.73E-13  2.71E-13  3.41E-13  7.29E-13  4.14E-07  1.36E-06
 -1.6259E+00 -1.6224E+00 -1.6183E+00 -1.6183E+00 -1.6183E+00 -1.6183E+00
 -1.6179E+00 -1.6179E+00 -1.6179E+00 -1.6179E+00 -1.6176E+00 -1.6176E+00
 -1.6172E+00 -1.6172E+00 -1.6148E+00 -1.6120E+00 -6.9165E-01 -6.9165E-01
 -6.9096E-01 -6.9096E-01 -6.9096E-01 -6.9096E-01 -6.8190E-01 -6.8190E-01
 -6.7986E-01 -6.7986E-01 -6.7986E-01 -6.7986E-01 -6.7925E-01 -6.7744E-01
 -6.7713E-01 -6.7713E-01 -6.7008E-01 -6.7008E-01 -6.6802E-01 -6.6802E-01
 -6.6300E-01 -6.6300E-01 -6.6158E-01 -6.6158E-01 -6.6158E-01 -6.6158E-01
 -6.6141E-01 -6.6103E-01 -6.6103E-01 -6.6103E-01 -6.6103E-01 -6.5829E-01
 -6.5829E-01 -6.5504E-01 -6.5504E-01 -6.5504E-01 -6.5504E-01 -6.5368E-01
 -6.5368E-01 -6.4936E-01 -6.4840E-01 -6.4840E-01 -6.4757E-01 -6.4757E-01
 -6.4757E-01 -6.4757E-01 -6.4695E-01 -6.4695E-01  3.8122E-01  4.3969E-01
  4.4066E-01  4.4428E-01  4.4428E-01  4.4428E-01  4.4428E-01  4.4572E-01
  4.5165E-01  4.5165E-01  4.7753E-01  4.7758E-01  4.7758E-01  4.7758E-01
  4.7758E-01  4.8635E-01  5.0237E-01  5.0237E-01  5.0380E-01  5.0380E-01
  5.0860E-01  5.0860E-01  5.1640E-01  5.1640E-01  5.1640E-01  5.1640E-01
  5.3896E-01  5.3896E-01  5.3896E-01  5.3896E-01  5.6230E-01  5.6230E-01
  5.6230E-01  5.6230E-01  5.7167E-01  5.7167E-01  5.7557E-01  5.7557E-01
  5.8092E-01  5.8092E-01  5.8530E-01  5.9282E-01  6.1210E-01  6.1210E-01
  6.1210E-01  6.1210E-01  6.1622E-01  6.3089E-01  6.3089E-01  6.3089E-01
  6.3089E-01  6.3978E-01  6.3978E-01  6.4848E-01  6.4848E-01  6.6062E-01
  6.7318E-01  6.7318E-01  6.7318E-01  6.7318E-01  6.9216E-01  6.9216E-01
  6.9495E-01  7.0556E-01  7.0665E-01  7.0665E-01  7.0665E-01  7.0665E-01
  7.0674E-01  7.0674E-01  7.1043E-01  7.1043E-01  7.1284E-01  7.1284E-01
  7.2130E-01  7.2385E-01  7.2385E-01  7.4834E-01  7.4834E-01  7.4834E-01
  7.4834E-01  7.5319E-01  7.5354E-01  7.5354E-01  7.5354E-01  7.5354E-01
  7.7349E-01  7.7349E-01  7.7349E-01  7.7349E-01  8.0584E-01  8.5213E-01
  8.5213E-01  9.0657E-01  9.5799E-01  9.5800E-01
 Non-SCF case, kpt   12 (  0.00000  0.34921  0.00000), residuals and eigenvalues=
  3.37E-13  4.08E-13  2.80E-13  2.98E-13  2.52E-13  2.26E-13  9.39E-13  2.58E-13
  3.02E-13  2.02E-13  2.26E-13  2.39E-13  2.55E-13  2.38E-13  2.30E-13  2.72E-13
  1.28E-13  1.17E-13  1.45E-13  1.84E-13  9.61E-13  1.15E-13  7.29E-13  3.14E-13
  1.25E-13  1.07E-13  1.05E-13  9.71E-14  1.06E-13  1.31E-13  7.34E-13  1.17E-13
  1.52E-13  1.07E-13  1.85E-13  1.36E-13  1.77E-13  1.24E-13  6.60E-13  1.77E-13
  7.47E-13  1.25E-13  8.62E-13  9.25E-13  9.68E-13  9.11E-13  1.09E-13  1.02E-13
  1.33E-13  1.25E-13  1.07E-13  1.14E-13  1.05E-13  6.62E-13  1.77E-13  1.21E-13
  5.28E-13  6.17E-13  1.05E-13  7.55E-13  1.10E-13  8.78E-13  5.87E-13  3.22E-13
  7.65E-13  3.11E-13  4.95E-13  7.31E-13  7.47E-13  2.75E-13  1.47E-13  7.78E-13
  4.44E-13  2.65E-13  6.42E-13  5.19E-13  9.58E-13  6.39E-13  2.47E-13  7.28E-13
  4.61E-13  4.32E-13  8.92E-13  4.25E-13  9.33E-13  3.76E-13  1.48E-13  5.68E-13
  8.52E-13  9.42E-13  8.86E-13  8.03E-13  5.10E-13  2.83E-13  3.60E-13  4.46E-13
  2.82E-13  3.61E-13  8.67E-13  1.97E-13  8.14E-13  4.13E-13  6.72E-13  4.92E-13
  5.95E-13  6.07E-13  9.70E-13  4.31E-13  7.61E-13  4.59E-13  7.34E-13  4.14E-13
  2.39E-13  4.85E-13  2.88E-13  6.56E-13  1.56E-13  5.13E-13  9.79E-13  5.01E-13
  4.31E-13  4.22E-13  5.46E-13  8.10E-13  5.48E-13  8.38E-13  5.58E-13  7.79E-13
  5.41E-13  3.82E-13  5.75E-13  4.91E-13  6.89E-13  8.51E-13  3.97E-13  3.13E-13
  1.69E-13  2.97E-13  9.46E-14  3.91E-13  4.21E-13  6.20E-13  6.77E-13  4.56E-13
  3.28E-13  3.40E-13  7.53E-13  8.75E-13  3.28E-13  7.25E-13  3.79E-13  3.19E-13
  4.84E-13  2.64E-13  5.22E-13  5.45E-13  8.13E-13  7.04E-13  1.75E-07  3.48E-06
 -1.6257E+00 -1.6228E+00 -1.6183E+00 -1.6183E+00 -1.6183E+00 -1.6183E+00
 -1.6180E+00 -1.6180E+00 -1.6180E+00 -1.6180E+00 -1.6176E+00 -1.6176E+00
 -1.6172E+00 -1.6172E+00 -1.6145E+00 -1.6122E+00 -6.9105E-01 -6.9105E-01
 -6.9022E-01 -6.9022E-01 -6.9022E-01 -6.9022E-01 -6.8293E-01 -6.8293E-01
 -6.8099E-01 -6.8099E-01 -6.8099E-01 -6.8099E-01 -6.7922E-01 -6.7777E-01
 -6.7670E-01 -6.7670E-01 -6.7084E-01 -6.7084E-01 -6.6760E-01 -6.6760E-01
 -6.6340E-01 -6.6340E-01 -6.6153E-01 -6.6153E-01 -6.6153E-01 -6.6153E-01
 -6.6107E-01 -6.6107E-01 -6.6107E-01 -6.6107E-01 -6.6027E-01 -6.5720E-01
 -6.5720E-01 -6.5421E-01 -6.5421E-01 -6.5421E-01 -6.5421E-01 -6.5295E-01
 -6.5295E-01 -6.5021E-01 -6.4901E-01 -6.4901E-01 -6.4802E-01 -6.4802E-01
 -6.4802E-01 -6.4802E-01 -6.4737E-01 -6.4737E-01  3.8520E-01  4.3480E-01
  4.4192E-01  4.4662E-01  4.4662E-01  4.4662E-01  4.4662E-01  4.4895E-01
  4.5540E-01  4.5540E-01  4.7323E-01  4.7469E-01  4.7469E-01  4.7469E-01
  4.7469E-01  4.8336E-01  4.9918E-01  4.9918E-01  5.0244E-01  5.0244E-01
  5.0742E-01  5.0742E-01  5.1923E-01  5.1923E-01  5.1923E-01  5.1923E-01
  5.4297E-01  5.4297E-01  5.4297E-01  5.4297E-01  5.5734E-01  5.5734E-01
  5.5734E-01  5.5734E-01  5.7554E-01  5.7554E-01  5.7688E-01  5.7688E-01
  5.7976E-01  5.7976E-01  5.8715E-01  5.9932E-01  6.0406E-01  6.0406E-01
  6.0406E-01  6.0406E-01  6.1273E-01  6.3344E-01  6.3344E-01  6.3502E-01
  6.3502E-01  6.3502E-01  6.3502E-01  6.5424E-01  6.5424E-01  6.5579E-01
  6.7032E-01  6.7032E-01  6.7032E-01  6.7032E-01  6.9322E-01  6.9322E-01
  6.9676E-01  7.0547E-01  7.0547E-01  7.1031E-01  7.1062E-01  7.1062E-01
  7.1265E-01  7.1265E-01  7.1317E-01  7.1317E-01  7.1317E-01  7.1317E-01
  7.1689E-01  7.1689E-01  7.1874E-01  7.4996E-01  7.5046E-01  7.5046E-01
  7.5046E-01  7.5046E-01  7.5408E-01  7.5408E-01  7.5408E-01  7.5408E-01
  7.6888E-01  7.6888E-01  7.6888E-01  7.6888E-01  8.1376E-01  8.6075E-01
  8.6075E-01  8.9796E-01  9.4862E-01  9.4862E-01
 Non-SCF case, kpt   13 (  0.00000  0.38095  0.00000), residuals and eigenvalues=
  3.59E-13  4.48E-13  2.10E-13  3.46E-13  3.13E-13  2.76E-13  3.07E-13  2.43E-13
  2.53E-13  2.43E-13  2.45E-13  2.19E-13  3.15E-13  2.29E-13  2.10E-13  8.63E-13
  1.95E-13  1.14E-13  1.52E-13  1.17E-13  9.70E-13  1.49E-13  8.63E-13  1.89E-13
  9.50E-14  1.18E-13  9.44E-13  1.13E-13  9.90E-13  1.14E-13  8.34E-13  1.28E-13
  1.71E-13  1.61E-13  9.66E-14  1.00E-13  1.58E-13  9.53E-14  1.24E-13  1.47E-13
  1.32E-13  1.25E-13  1.23E-13  1.51E-13  7.50E-13  4.00E-13  9.83E-14  1.60E-13
  1.84E-13  9.41E-13  1.35E-13  1.10E-13  1.54E-13  1.40E-13  1.26E-13  1.35E-13
  8.41E-13  2.30E-13  1.56E-13  1.65E-13  1.25E-13  1.60E-13  4.75E-13  5.35E-13
  1.50E-13  4.12E-13  7.14E-13  3.55E-13  7.17E-13  5.28E-13  4.78E-13  5.64E-13
  3.04E-13  2.16E-13  4.59E-13  6.43E-13  6.61E-13  5.39E-13  5.93E-13  9.68E-13
  9.27E-13  3.34E-13  3.53E-13  9.58E-13  7.18E-13  6.17E-13  7.07E-13  8.73E-13
  3.29E-13  2.63E-13  5.74E-13  6.50E-13  6.37E-13  6.16E-13  5.93E-13  2.33E-13
  7.87E-13  3.02E-13  9.44E-13  6.30E-13  3.06E-13  3.44E-13  5.89E-13  1.53E-13
  6.83E-13  5.44E-13  1.75E-13  6.33E-13  1.82E-13  2.80E-13  3.99E-13  6.18E-13
  4.20E-13  4.41E-13  6.73E-13  3.19E-13  9.55E-13  3.94E-13  1.00E-12  2.83E-13
  5.04E-13  9.17E-13  7.15E-13  5.11E-13  6.94E-13  2.08E-13  2.90E-13  2.64E-13
  2.92E-13  3.78E-13  5.92E-13  9.68E-13  8.10E-13  8.93E-13  2.74E-13  4.96E-13
  9.05E-13  6.14E-13  6.35E-13  8.82E-13  7.12E-13  6.35E-13  2.89E-13  4.82E-13
  2.66E-13  4.18E-13  8.60E-13  4.16E-13  4.29E-13  3.51E-13  2.32E-13  3.30E-13
  6.69E-13  7.57E-13  7.11E-13  7.58E-13  3.98E-13  5.48E-13  1.15E-09  8.24E-07
 -1.6255E+00 -1.6232E+00 -1.6183E+00 -1.6183E+00 -1.6183E+00 -1.6183E+00
 -1.6180E+00 -1.6180E+00 -1.6180E+00 -1.6180E+00 -1.6175E+00 -1.6175E+00
 -1.6172E+00 -1.6172E+00 -1.6142E+00 -1.6124E+00 -6.9039E-01 -6.9039E-01
 -6.8944E-01 -6.8944E-01 -6.8944E-01 -6.8944E-01 -6.8395E-01 -6.8395E-01
 -6.8208E-01 -6.8208E-01 -6.8208E-01 -6.8208E-01 -6.7918E-01 -6.7811E-01
 -6.7622E-01 -6.7622E-01 -6.7159E-01 -6.7159E-01 -6.6718E-01 -6.6718E-01
 -6.6385E-01 -6.6385E-01 -6.6149E-01 -6.6149E-01 -6.6149E-01 -6.6149E-01
 -6.6112E-01 -6.6112E-01 -6.6112E-01 -6.6112E-01 -6.5912E-01 -6.5616E-01
 -6.5616E-01 -6.5342E-01 -6.5342E-01 -6.5342E-01 -6.5342E-01 -6.5224E-01
 -6.5224E-01 -6.5109E-01 -6.4969E-01 -6.4969E-01 -6.4852E-01 -6.4852E-01
 -6.4852E-01 -6.4852E-01 -6.4781E-01 -6.4781E-01  3.8949E-01  4.2897E-01
  4.4437E-01  4.4913E-01  4.4913E-01  4.4913E-01  4.4913E-01  4.5238E-01
  4.5941E-01  4.5941E-01  4.6911E-01  4.7164E-01  4.7164E-01  4.7164E-01
  4.7164E-01  4.8007E-01  4.9442E-01  4.9442E-01  5.0256E-01  5.0256E-01
  5.0639E-01  5.0639E-01  5.2230E-01  5.2230E-01  5.2230E-01  5.2230E-01
  5.4756E-01  5.4756E-01  5.4756E-01  5.4756E-01  5.5251E-01  5.5251E-01
  5.5251E-01  5.5251E-01  5.7558E-01  5.7558E-01  5.7878E-01  5.7878E-01
  5.8226E-01  5.8226E-01  5.8916E-01  5.9621E-01  5.9621E-01  5.9621E-01
  5.9621E-01  6.0578E-01  6.0939E-01  6.2709E-01  6.2709E-01  6.3915E-01
  6.3915E-01  6.3915E-01  6.3915E-01  6.5066E-01  6.6018E-01  6.6018E-01
  6.6725E-01  6.6725E-01  6.6725E-01  6.6725E-01  6.9435E-01  6.9435E-01
  6.9870E-01  7.0415E-01  7.0415E-01  7.0991E-01  7.0991E-01  7.1082E-01
  7.1082E-01  7.1245E-01  7.1245E-01  7.1500E-01  7.1619E-01  7.1966E-01
  7.1966E-01  7.1966E-01  7.1966E-01  7.4649E-01  7.5213E-01  7.5213E-01
  7.5213E-01  7.5213E-01  7.5454E-01  7.5454E-01  7.5454E-01  7.5454E-01
  7.6394E-01  7.6394E-01  7.6394E-01  7.6394E-01  8.2200E-01  8.6957E-01
  8.6957E-01  8.8910E-01  9.3918E-01  9.3918E-01
 Non-SCF case, kpt   14 (  0.00000  0.41270  0.00000), residuals and eigenvalues=
  3.27E-13  8.65E-13  3.48E-13  3.26E-13  2.84E-13  2.17E-13  2.45E-13  2.41E-13
  2.48E-13  8.09E-13  2.46E-13  7.82E-13  9.70E-13  9.37E-13  8.38E-13  9.48E-13
  7.34E-13  2.11E-13  9.86E-13  9.00E-13  1.24E-13  1.15E-13  1.50E-13  1.41E-13
[...]
                       0.00000000E+00  3.17460300E-02  0.00000000E+00
                       0.00000000E+00  6.34920600E-02  0.00000000E+00
                       0.00000000E+00  9.52381000E-02  0.00000000E+00
                       0.00000000E+00  1.26984130E-01  0.00000000E+00
                       0.00000000E+00  1.58730160E-01  0.00000000E+00
                       0.00000000E+00  1.90476190E-01  0.00000000E+00
                       0.00000000E+00  2.22222220E-01  0.00000000E+00
                       0.00000000E+00  2.53968250E-01  0.00000000E+00
                       0.00000000E+00  2.85714290E-01  0.00000000E+00
                       0.00000000E+00  3.17460320E-01  0.00000000E+00
                       0.00000000E+00  3.49206350E-01  0.00000000E+00
                       0.00000000E+00  3.80952380E-01  0.00000000E+00
                       0.00000000E+00  4.12698410E-01  0.00000000E+00
                       0.00000000E+00  4.44444440E-01  0.00000000E+00
                       0.00000000E+00  4.76190480E-01  0.00000000E+00
                       0.00000000E+00 -4.92063490E-01  0.00000000E+00
                       0.00000000E+00 -4.60317460E-01  0.00000000E+00
                       0.00000000E+00 -4.28571430E-01  0.00000000E+00
                       0.00000000E+00 -3.96825400E-01  0.00000000E+00
                       0.00000000E+00 -3.65079370E-01  0.00000000E+00
                       0.00000000E+00 -3.33333330E-01  0.00000000E+00
                       0.00000000E+00 -3.01587300E-01  0.00000000E+00
                       0.00000000E+00 -2.69841270E-01  0.00000000E+00
                       0.00000000E+00 -2.38095240E-01  0.00000000E+00
                       0.00000000E+00 -2.06349210E-01  0.00000000E+00
                       0.00000000E+00 -1.74603170E-01  0.00000000E+00
                       0.00000000E+00 -1.42857140E-01  0.00000000E+00
                       0.00000000E+00 -1.11111110E-01  0.00000000E+00
                       0.00000000E+00 -7.93650800E-02  0.00000000E+00
                       0.00000000E+00 -4.76190500E-02  0.00000000E+00
                       0.00000000E+00 -1.58730200E-02  0.00000000E+00
                       2.22222200E-02 -2.22222200E-02  0.00000000E+00
                      -2.22222200E-02 -2.22222200E-02  0.00000000E+00
                       4.44444400E-02 -4.44444400E-02  0.00000000E+00
                      -4.44444400E-02 -4.44444400E-02  0.00000000E+00
                       6.66666700E-02 -6.66666700E-02  0.00000000E+00
                      -6.66666700E-02 -6.66666700E-02  0.00000000E+00
                       8.88888900E-02 -8.88888900E-02  0.00000000E+00
                      -8.88888900E-02 -8.88888900E-02  0.00000000E+00
                       1.11111110E-01 -1.11111110E-01  0.00000000E+00
                      -1.11111110E-01 -1.11111110E-01  0.00000000E+00
                       1.33333330E-01 -1.33333330E-01  0.00000000E+00
                      -1.33333330E-01 -1.33333330E-01  0.00000000E+00
                       1.55555560E-01 -1.55555560E-01  0.00000000E+00
                      -1.55555560E-01 -1.55555560E-01  0.00000000E+00
                       1.77777780E-01 -1.77777780E-01  0.00000000E+00
                      -1.77777780E-01 -1.77777780E-01  0.00000000E+00
                       2.00000000E-01 -2.00000000E-01  0.00000000E+00
                      -2.00000000E-01 -2.00000000E-01  0.00000000E+00
                       2.22222220E-01 -2.22222220E-01  0.00000000E+00
                      -2.22222220E-01 -2.22222220E-01  0.00000000E+00
                       2.44444440E-01 -2.44444440E-01  0.00000000E+00
                      -2.44444440E-01 -2.44444440E-01  0.00000000E+00
                       2.66666670E-01 -2.66666670E-01  0.00000000E+00
                      -2.66666670E-01 -2.66666670E-01  0.00000000E+00
                       2.88888890E-01 -2.88888890E-01  0.00000000E+00
                      -2.88888890E-01 -2.88888890E-01  0.00000000E+00
                       3.11111110E-01 -3.11111110E-01  0.00000000E+00
                      -3.11111110E-01 -3.11111110E-01  0.00000000E+00
                       3.33333330E-01 -3.33333330E-01  0.00000000E+00
                      -3.33333330E-01 -3.33333330E-01  0.00000000E+00
                       3.55555560E-01 -3.55555560E-01  0.00000000E+00
                      -3.55555560E-01 -3.55555560E-01  0.00000000E+00
                       3.77777780E-01 -3.77777780E-01  0.00000000E+00
                      -3.77777780E-01 -3.77777780E-01  0.00000000E+00
                       4.00000000E-01 -4.00000000E-01  0.00000000E+00
                      -4.00000000E-01 -4.00000000E-01  0.00000000E+00
                       4.22222220E-01 -4.22222220E-01  0.00000000E+00
                      -4.22222220E-01 -4.22222220E-01  0.00000000E+00
                       4.44444440E-01 -4.44444440E-01  0.00000000E+00
                      -4.44444440E-01 -4.44444440E-01  0.00000000E+00
                       4.66666670E-01 -4.66666670E-01  0.00000000E+00
                      -4.66666670E-01 -4.66666670E-01  0.00000000E+00
                       4.88888890E-01 -4.88888890E-01  0.00000000E+00
                      -4.88888890E-01 -4.88888890E-01  0.00000000E+00
                       1.81818200E-02  1.81818200E-02  1.81818200E-02
                       1.81818200E-02 -1.81818200E-02  1.81818200E-02
                       3.63636400E-02  3.63636400E-02  3.63636400E-02
                       3.63636400E-02 -3.63636400E-02  3.63636400E-02
                       5.45454500E-02  5.45454500E-02  5.45454500E-02
                       5.45454500E-02 -5.45454500E-02  5.45454500E-02
                       7.27272700E-02  7.27272700E-02  7.27272700E-02
                       7.27272700E-02 -7.27272700E-02  7.27272700E-02
                       9.09090900E-02  9.09090900E-02  9.09090900E-02
                       9.09090900E-02 -9.09090900E-02  9.09090900E-02
                       1.09090910E-01  1.09090910E-01  1.09090910E-01
                       1.09090910E-01 -1.09090910E-01  1.09090910E-01
                       1.27272730E-01  1.27272730E-01  1.27272730E-01
                       1.27272730E-01 -1.27272730E-01  1.27272730E-01
                       1.45454550E-01  1.45454550E-01  1.45454550E-01
                       1.45454550E-01 -1.45454550E-01  1.45454550E-01
                       1.63636360E-01  1.63636360E-01  1.63636360E-01
                       1.63636360E-01 -1.63636360E-01  1.63636360E-01
                       1.81818180E-01  1.81818180E-01  1.81818180E-01
                       1.81818180E-01 -1.81818180E-01  1.81818180E-01
                       2.00000000E-01  2.00000000E-01  2.00000000E-01
                       2.00000000E-01 -2.00000000E-01  2.00000000E-01
                       2.18181820E-01  2.18181820E-01  2.18181820E-01
                       2.18181820E-01 -2.18181820E-01  2.18181820E-01
                       2.36363640E-01  2.36363640E-01  2.36363640E-01
                       2.36363640E-01 -2.36363640E-01  2.36363640E-01
                       2.54545450E-01  2.54545450E-01  2.54545450E-01
                       2.54545450E-01 -2.54545450E-01  2.54545450E-01
                       2.72727270E-01  2.72727270E-01  2.72727270E-01
                       2.72727270E-01 -2.72727270E-01  2.72727270E-01
                       2.90909090E-01  2.90909090E-01  2.90909090E-01
                       2.90909090E-01 -2.90909090E-01  2.90909090E-01
                       3.09090910E-01  3.09090910E-01  3.09090910E-01
                       3.09090910E-01 -3.09090910E-01  3.09090910E-01
                       3.27272730E-01  3.27272730E-01  3.27272730E-01
                       3.27272730E-01 -3.27272730E-01  3.27272730E-01
                       3.45454550E-01  3.45454550E-01  3.45454550E-01
                       3.45454550E-01 -3.45454550E-01  3.45454550E-01
                       3.63636360E-01  3.63636360E-01  3.63636360E-01
                       3.63636360E-01 -3.63636360E-01  3.63636360E-01
                       3.81818180E-01  3.81818180E-01  3.81818180E-01
                       3.81818180E-01 -3.81818180E-01  3.81818180E-01
                       4.00000000E-01  4.00000000E-01  4.00000000E-01
                       4.00000000E-01 -4.00000000E-01  4.00000000E-01
                       4.18181820E-01  4.18181820E-01  4.18181820E-01
                       4.18181820E-01 -4.18181820E-01  4.18181820E-01
                       4.36363640E-01  4.36363640E-01  4.36363640E-01
                       4.36363640E-01 -4.36363640E-01  4.36363640E-01
                       4.54545450E-01  4.54545450E-01  4.54545450E-01
                       4.54545450E-01 -4.54545450E-01  4.54545450E-01
                       4.72727270E-01  4.72727270E-01  4.72727270E-01
                       4.72727270E-01 -4.72727270E-01  4.72727270E-01
                       4.90909090E-01  4.90909090E-01  4.90909090E-01
                       4.90909090E-01 -4.90909090E-01  4.90909090E-01
                       0.00000000E+00  0.00000000E+00 -3.12500000E-02
                       0.00000000E+00  0.00000000E+00 -6.25000000E-02
                       0.00000000E+00  0.00000000E+00 -9.37500000E-02
                       0.00000000E+00  0.00000000E+00 -1.25000000E-01
                       0.00000000E+00  0.00000000E+00 -1.56250000E-01
                       0.00000000E+00  0.00000000E+00 -1.87500000E-01
                       0.00000000E+00  0.00000000E+00 -2.18750000E-01
                       0.00000000E+00  0.00000000E+00 -2.50000000E-01
                       0.00000000E+00  0.00000000E+00 -2.81250000E-01
                       0.00000000E+00  0.00000000E+00 -3.12500000E-01
                       0.00000000E+00  0.00000000E+00 -3.43750000E-01
                       0.00000000E+00  0.00000000E+00 -3.75000000E-01
                       0.00000000E+00  0.00000000E+00 -4.06250000E-01
                       0.00000000E+00  0.00000000E+00 -4.37500000E-01
                       0.00000000E+00  0.00000000E+00 -4.68750000E-01
                       0.00000000E+00  0.00000000E+00  5.00000000E-01
           kptopt           0
P           mkmem         146
            natom          16
            nband         160
           nbdbuf           2
            ngfft          60      60      60
             nkpt         146
            nstep          50
             nsym           1
           ntypat           1
           occopt           7
           prtvol           2
          spgroup           1
           tolwfr      1.00000000E-12
           tsmear      5.00000000E-03 Hartree
            typat      1  1  1  1  1  1  1  1  1  1  1  1  1  1  1  1
           xangst      0.0000000000E+00  0.0000000000E+00  0.0000000000E+00
                       0.0000000000E+00  0.0000000000E+00  3.1618627471E+00
                       0.0000000000E+00  3.1618627471E+00  0.0000000000E+00
                       0.0000000000E+00  3.1618627471E+00  3.1618627471E+00
                       3.1618627471E+00  0.0000000000E+00  0.0000000000E+00
                       3.1618627471E+00  0.0000000000E+00  3.1618627471E+00
                       3.1618627471E+00  3.1618627471E+00  0.0000000000E+00
                       3.1618627471E+00  3.1618627471E+00  3.1618627471E+00
                       1.5809313735E+00  1.5809313735E+00  1.5809313735E+00
                       1.5809313735E+00  1.5809313735E+00  4.7427941206E+00
                       1.5809313735E+00  4.7427941206E+00  1.5809313735E+00
                       1.5809313735E+00  4.7427941206E+00  4.7427941206E+00
                       4.7427941206E+00  1.5809313735E+00  1.5809313735E+00
                       4.7427941206E+00  1.5809313735E+00  4.7427941206E+00
                       4.7427941206E+00  4.7427941206E+00  1.5809313735E+00
                       4.7427941206E+00  4.7427941206E+00  4.7427941206E+00
            xcart      0.0000000000E+00  0.0000000000E+00  0.0000000000E+00
                       0.0000000000E+00  0.0000000000E+00  5.9750546617E+00
                       0.0000000000E+00  5.9750546617E+00  0.0000000000E+00
                       0.0000000000E+00  5.9750546617E+00  5.9750546617E+00
                       5.9750546617E+00  0.0000000000E+00  0.0000000000E+00
                       5.9750546617E+00  0.0000000000E+00  5.9750546617E+00
                       5.9750546617E+00  5.9750546617E+00  0.0000000000E+00
                       5.9750546617E+00  5.9750546617E+00  5.9750546617E+00
                       2.9875273308E+00  2.9875273308E+00  2.9875273308E+00
                       2.9875273308E+00  2.9875273308E+00  8.9625819925E+00
                       2.9875273308E+00  8.9625819925E+00  2.9875273308E+00
                       2.9875273308E+00  8.9625819925E+00  8.9625819925E+00
                       8.9625819925E+00  2.9875273308E+00  2.9875273308E+00
                       8.9625819925E+00  2.9875273308E+00  8.9625819925E+00
                       8.9625819925E+00  8.9625819925E+00  2.9875273308E+00
                       8.9625819925E+00  8.9625819925E+00  8.9625819925E+00
             xred      0.0000000000E+00  0.0000000000E+00  0.0000000000E+00
                       0.0000000000E+00  0.0000000000E+00  5.0000000000E-01
                       0.0000000000E+00  5.0000000000E-01  0.0000000000E+00
                       0.0000000000E+00  5.0000000000E-01  5.0000000000E-01
                       5.0000000000E-01  0.0000000000E+00  0.0000000000E+00
                       5.0000000000E-01  0.0000000000E+00  5.0000000000E-01
                       5.0000000000E-01  5.0000000000E-01  0.0000000000E+00
                       5.0000000000E-01  5.0000000000E-01  5.0000000000E-01
                       2.5000000000E-01  2.5000000000E-01  2.5000000000E-01
                       2.5000000000E-01  2.5000000000E-01  7.5000000000E-01
                       2.5000000000E-01  7.5000000000E-01  2.5000000000E-01
                       2.5000000000E-01  7.5000000000E-01  7.5000000000E-01
                       7.5000000000E-01  2.5000000000E-01  2.5000000000E-01
                       7.5000000000E-01  2.5000000000E-01  7.5000000000E-01
                       7.5000000000E-01  7.5000000000E-01  2.5000000000E-01
                       7.5000000000E-01  7.5000000000E-01  7.5000000000E-01
            znucl       42.00000
 
================================================================================
 
 The spacegroup number, the magnetic point group, and/or the number of symmetries
 have changed between the initial recognition based on the input file
 and a postprocessing based on the final acell, rprim, and xred.
 More details in the log file.


- Timing analysis has been suppressed with timopt=0



================================================================================

 Suggested references for the acknowledgment of ABINIT usage.

 The users of ABINIT have little formal obligations with respect to the ABINIT group
 (those specified in the GNU General Public License, http://www.gnu.org/copyleft/gpl.txt).
 However, it is common practice in the scientific literature,
 to acknowledge the efforts of people that have made the research possible.
 In this spirit, please find below suggested citations of work written by ABINIT developers,
 corresponding to implementations inside of ABINIT that you have used in the present run.
 Note also that it will be of great value to readers of publications presenting these results,
 to read papers enabling them to understand the theoretical formalism and details
 of the ABINIT implementation.
 For information on why they are suggested, see also https://docs.abinit.org/theory/acknowledgments.
-
- [1] Specification of an extensible and portable file format for electronic structure and crystallographic data
- X. Gonze, C.-O. Almbladh, A. Cucca, D. Caliste, C. Freysoldt, M. Marques, V. Olevano, Y. Pouillon, M.J. Verstraete,
- Comput. Material Science 43, 1056 (2008).
- Comment: to be cited in case the ETSF_IO file format is used, i.e. iomode=3.
- DOI and bibtex: see https://docs.abinit.org/theory/bibliography/#gonze2008
-
- [2] The Abinit project: Impact, environment and recent developments.
- Computer Phys. Comm. 248, 107042 (2020).
- X.Gonze, B. Amadon, G. Antonius, F.Arnardi, L.Baguet, J.-M.Beuken,
- J.Bieder, F.Bottin, J.Bouchet, E.Bousquet, N.Brouwer, F.Bruneval,
- G.Brunin, T.Cavignac, J.-B. Charraud, Wei Chen, M.Cote, S.Cottenier,
- J.Denier, G.Geneste, Ph.Ghosez, M.Giantomassi, Y.Gillet, O.Gingras,
- D.R.Hamann, G.Hautier, Xu He, N.Helbig, N.Holzwarth, Y.Jia, F.Jollet,
- W.Lafargue-Dit-Hauret, K.Lejaeghere, M.A.L.Marques, A.Martin, C.Martins,
- H.P.C. Miranda, F.Naccarato, K. Persson, G.Petretto, V.Planes, Y.Pouillon,
- S.Prokhorenko, F.Ricci, G.-M.Rignanese, A.H.Romero, M.M.Schmitt, M.Torrent,
- M.J.van Setten, B.Van Troeye, M.J.Verstraete, G.Zerah and J.W.Zwanzig
- Comment: the fifth generic paper describing the ABINIT project.
- Note that a version of this paper, that is not formatted for Computer Phys. Comm. 
- is available at https://www.abinit.org/sites/default/files/ABINIT20.pdf .
- The licence allows the authors to put it on the Web.
- DOI and bibtex: see https://docs.abinit.org/theory/bibliography/#gonze2020
-
- [3] Optimized norm-conserving Vanderbilt pseudopotentials.
- D.R. Hamann, Phys. Rev. B 88, 085117 (2013).
- Comment: Some pseudopotential generated using the ONCVPSP code were used.
- DOI and bibtex: see https://docs.abinit.org/theory/bibliography/#hamann2013
-
- [4] ABINIT: Overview, and focus on selected capabilities
- J. Chem. Phys. 152, 124102 (2020).
- A. Romero, D.C. Allan, B. Amadon, G. Antonius, T. Applencourt, L.Baguet,
- J.Bieder, F.Bottin, J.Bouchet, E.Bousquet, F.Bruneval,
- G.Brunin, D.Caliste, M.Cote,
- J.Denier, C. Dreyer, Ph.Ghosez, M.Giantomassi, Y.Gillet, O.Gingras,
- D.R.Hamann, G.Hautier, F.Jollet, G. Jomard,
- A.Martin, 
- H.P.C. Miranda, F.Naccarato, G.Petretto, N.A. Pike, V.Planes,
- S.Prokhorenko, T. Rangel, F.Ricci, G.-M.Rignanese, M.Royo, M.Stengel, M.Torrent,
- M.J.van Setten, B.Van Troeye, M.J.Verstraete, J.Wiktor, J.W.Zwanziger, and X.Gonze.
- Comment: a global overview of ABINIT, with focus on selected capabilities .
- Note that a version of this paper, that is not formatted for J. Chem. Phys 
- is available at https://www.abinit.org/sites/default/files/ABINIT20_JPC.pdf .
- The licence allows the authors to put it on the Web.
- DOI and bibtex: see https://docs.abinit.org/theory/bibliography/#romero2020
-
- [5] Recent developments in the ABINIT software package.
- Computer Phys. Comm. 205, 106 (2016).
- X.Gonze, F.Jollet, F.Abreu Araujo, D.Adams, B.Amadon, T.Applencourt,
- C.Audouze, J.-M.Beuken, J.Bieder, A.Bokhanchuk, E.Bousquet, F.Bruneval
- D.Caliste, M.Cote, F.Dahm, F.Da Pieve, M.Delaveau, M.Di Gennaro,
- B.Dorado, C.Espejo, G.Geneste, L.Genovese, A.Gerossier, M.Giantomassi,
- Y.Gillet, D.R.Hamann, L.He, G.Jomard, J.Laflamme Janssen, S.Le Roux,
- A.Levitt, A.Lherbier, F.Liu, I.Lukacevic, A.Martin, C.Martins,
- M.J.T.Oliveira, S.Ponce, Y.Pouillon, T.Rangel, G.-M.Rignanese,
- A.H.Romero, B.Rousseau, O.Rubel, A.A.Shukri, M.Stankovski, M.Torrent,
- M.J.Van Setten, B.Van Troeye, M.J.Verstraete, D.Waroquier, J.Wiktor,
- B.Xu, A.Zhou, J.W.Zwanziger.
- Comment: the fourth generic paper describing the ABINIT project.
- Note that a version of this paper, that is not formatted for Computer Phys. Comm. 
- is available at https://www.abinit.org/sites/default/files/ABINIT16.pdf .
- The licence allows the authors to put it on the Web.
- DOI and bibtex: see https://docs.abinit.org/theory/bibliography/#gonze2016
-
- Proc.   0 individual time (sec): cpu=      12197.6  wall=      12197.6
 
================================================================================
 
 Calculation completed.
.Delivered  11 WARNINGs and   7 COMMENTs to log file.
+Overall time at end (sec) : cpu=      12197.6  wall=      12197.6
