To request GPUs, add --gpus-per-node X or --gpus X, where X is the desired number of GPUs.
Job 291221 running on easley053
- OMP_NUM_THREADS was not defined. It has been set to 1.
  ABINIT 10.4.5
  
-instrng: 229 lines of input have been read from file trf2_1.abi
 

.Version 10.4.5 of ABINIT, released Jul 2025.
.(MPI version, prepared for a x86_64_linux_nvhpc25.7-0 computer) 

.Copyright (C) 1998-2025 ABINIT group . 
 ABINIT comes with ABSOLUTELY NO WARRANTY.
 It is free software, and you are welcome to redistribute it
 under certain conditions (GNU General Public License,
 see ~abinit/COPYING or http://www.gnu.org/copyleft/gpl.txt).

 ABINIT is a project of the Universite Catholique de Louvain,
 Corning Inc. and other collaborators, see ~abinit/doc/developers/contributors.txt .
 Please read https://docs.abinit.org/theory/acknowledgments for suggested
 acknowledgments of the ABINIT effort.
 For more information, see https://www.abinit.org .

.Starting date : Tue 10 Mar 2026.
- ( at 11h44 )
  
 
 ++++++++++++++++++++++++++++++++++++++++++++++++++++++++++++++++++++++++++++++
 
 === Build Information === 
  Version       : 10.4.5
  Build target  : x86_64_linux_nvhpc25.7-0
  Build date    : 20250731
 
 === Compiler Suite === 
  C compiler       : nvhpc25.7-0
  C++ compiler     : nvhpc25.7-0
  Fortran compiler : nvhpc25.7-0
  CFLAGS           : -g -fast
  CXXFLAGS         : -g -fast
  FCFLAGS          : -g -Mextend -mp -mp=gpu -Minfo=mp -gpu=cc90   -mp -mp=gpu -Minfo=mp ...
  FC_LDFLAGS       : 
 
 === Optimizations === 
  Debug level        : basic
  Optimization level : standard
  Architecture       : intel_xeon
 
 === Multicore === 
  Parallel build : yes
  Parallel I/O   : yes
  openMP support : yes
  GPU support    : @with_gpu@
 
 === Connectors / Fallbacks === 
  LINALG flavor  : netlib
  FFT flavor     : fftw3-threads
  HDF5           : yes
  NetCDF         : yes
  NetCDF Fortran : yes
  LibXC          : yes
  Wannier90      : no
 
 === Experimental features === 
  Exports             : @enable_exports@
  GW double-precision : yes
 
 ++++++++++++++++++++++++++++++++++++++++++++++++++++++++++++++++++++++++++++++
 

 ++++++++++++++++++++++++++++++++++++++++++++++++++++++++++++++++++++++++++++++
 Default optimizations:
   -fast


 Optimizations for 43_ptgroups:
   -O0


 Optimizations for 80_tdep:
   -O1 -g -fPIC


 ++++++++++++++++++++++++++++++++++++++++++++++++++++++++++++++++++++++++++++++


 ++++++++++++++++++++++++++++++++++++++++++++++++++++++++++++++++++++++++++++++
 CPP options activated during the build:

                  CC_NVHPC                 CXX_NVHPC                  FC_NVHPC
 
 HAVE_FC_ALLOCATABLE_DT...             HAVE_FC_ASYNC  HAVE_FC_COMMAND_ARGUMENT
 
      HAVE_FC_COMMAND_LINE        HAVE_FC_CONTIGUOUS           HAVE_FC_CPUTIME
 
             HAVE_FC_ETIME              HAVE_FC_EXIT             HAVE_FC_FLUSH
 
             HAVE_FC_GAMMA            HAVE_FC_GETENV            HAVE_FC_GETPID
 
   HAVE_FC_IEEE_ARITHMETIC   HAVE_FC_IEEE_EXCEPTIONS             HAVE_FC_IOMSG
 
     HAVE_FC_ISO_C_BINDING  HAVE_FC_ISO_FORTRAN_2008        HAVE_FC_LONG_LINES
 
        HAVE_FC_MOVE_ALLOC  HAVE_FC_ON_THE_FLY_SHAPE           HAVE_FC_PRIVATE
 
         HAVE_FC_PROTECTED           HAVE_FC_SHIFTLR         HAVE_FC_STREAM_IO
 
            HAVE_FC_SYSTEM                HAVE_FFTW3        HAVE_FFTW3_THREADS
 
                  HAVE_GPU             HAVE_GPU_CUDA           HAVE_GPU_CUDA10
 
          HAVE_GPU_CUDA_DP              HAVE_GPU_MPI           HAVE_GPU_SERIAL
 
               HAVE_GW_DPC                 HAVE_HDF5             HAVE_HDF5_MPI
 
        HAVE_LIBPAW_ABINIT      HAVE_LIBTETRA_ABINIT                HAVE_LIBXC
 
         HAVE_LINALG_AXPBY        HAVE_LINALG_GEMM3M         HAVE_LINALG_GEMMT
 
 HAVE_LINALG_OPENBLAS_T...                  HAVE_MPI                 HAVE_MPI2
 
         HAVE_MPI2_INPLACE       HAVE_MPI_IALLGATHER       HAVE_MPI_IALLREDUCE
 
        HAVE_MPI_IALLTOALL       HAVE_MPI_IALLTOALLV           HAVE_MPI_IBCAST
 
         HAVE_MPI_IGATHERV        HAVE_MPI_INTEGER16               HAVE_MPI_IO
 
 HAVE_MPI_TYPE_CREATE_S...               HAVE_NETCDF       HAVE_NETCDF_FORTRAN
 
   HAVE_NETCDF_FORTRAN_MPI           HAVE_NETCDF_MPI         HAVE_OMP_COLLAPSE
 
               HAVE_OPENMP HAVE_OPENMP_GET_MAPPED...       HAVE_OPENMP_OFFLOAD
 
 HAVE_OPENMP_OFFLOAD_DA...             HAVE_OS_LINUX         HAVE_TIMER_ABINIT
 
                  HAVE_XML                                                      
 ++++++++++++++++++++++++++++++++++++++++++++++++++++++++++++++++++++++++++++++

- input  file    -> trf2_1.abi
- output file    -> trf2_1.abo
- root for input  files -> trf2_1i
- root for output files -> trf2_1o
 
 abinit : after writing the name of files
 Netcdf library supports MPI-IO
-instrng: 229 lines of input have been read from file trf2_1.abi
 
 For atom type 1, psp file is /users/suryab/Project/pseudos/PSP/pseudo_dojo/Mo.psp8
  read the values zionpsp= 14.0 , pspcod=   8 , lmax=   2
 
 inpspheads: deduce mpsang = 3, n1xccc = 2501.

======================================================= 
 invars1m : enter jdtset= 0
  xred   is defined in input file
 ingeo: takes atomic coordinates from input array xred
 
 symlatt: the Bravais lattice is cP (primitive cubic)
 
--- !COMMENT
src_file: m_symfind.F90
src_line: 1300
message: |
    The Bravais lattice determined only from the primitive
    vectors, bravais(1)=  7, is more symmetric
    than the real one, iholohedry=  1, obtained by taking into
    account the atomic positions. Start deforming the primitive vector set.
...
 
 
 symlatt: the Bravais lattice is mC (one-face-centered monoclinic)
 
--- !COMMENT
src_file: m_symfind.F90
src_line: 1309
message: |
    The Bravais lattice determined from modified primitive
    vectors, bravais(1)=  2, has a lower symmetry than before,
    but is still more symmetric than the real one, iholohedry=  1
    obtained by taking into account the atomic positions.
...
 
 
 symlatt: the Bravais lattice is aP (primitive triclinic)
 symspgr: spgroup=   1  P1   (=C1^1)
 
--- !WARNING
src_file: m_invars2.F90
src_line: 2121
message: |
    nbdbuf is not specified in input, using `nbdbuf = 2*nspinor` that may be too small!
    As a consequence, the NSCF cycle may have problems to converge the last bands within nstep iterations.
    To avoid this problem specify nbdbuf in the input file and adjust nband accordingly.
...
 
 initocc_chkneu: initialized the occupation numbers for occopt= 7, spin-unpolarized or antiferromagnetic case:
  2.00  2.00  2.00  2.00  2.00  2.00  2.00  2.00  2.00  2.00  2.00  2.00
  2.00  2.00  2.00  2.00  2.00  2.00  2.00  2.00  2.00  2.00  2.00  2.00
  2.00  2.00  2.00  2.00  2.00  2.00  2.00  2.00  2.00  2.00  2.00  2.00
  2.00  2.00  2.00  2.00  2.00  2.00  2.00  2.00  2.00  2.00  2.00  2.00
  2.00  2.00  2.00  2.00  2.00  2.00  2.00  2.00  2.00  2.00  2.00  2.00
  2.00  2.00  2.00  2.00  2.00  2.00  2.00  2.00  2.00  2.00  2.00  2.00
  2.00  2.00  2.00  2.00  2.00  2.00  2.00  2.00  2.00  2.00  2.00  2.00
  2.00  2.00  2.00  2.00  2.00  2.00  2.00  2.00  2.00  2.00  2.00  2.00
  2.00  2.00  2.00  2.00  2.00  2.00  2.00  2.00  2.00  2.00  2.00  2.00
  2.00  2.00  2.00  2.00  0.00  0.00  0.00  0.00  0.00  0.00  0.00  0.00
  0.00  0.00  0.00  0.00  0.00  0.00  0.00  0.00  0.00  0.00  0.00  0.00
  0.00  0.00  0.00  0.00  0.00  0.00  0.00  0.00  0.00  0.00  0.00  0.00
  0.00  0.00  0.00  0.00  0.00  0.00  0.00  0.00  0.00  0.00  0.00  0.00
  0.00  0.00  0.00  0.00
 mpi_setup: With nkpt_me=146 and mkmem  = 146, ground state wf handled in core.
 mpi_setup: With nkpt_me=146 and mkqmem = 146, ground state wf handled in core.
 mpi_setup: With nkpt_me=146 and mk1mem = 146, ground state wf handled in core.
 For input ecut=  3.000000E+01 best grid ngfft=      60      60      60
       max ecut=  3.110058E+01
 
 ==== FFT mesh ====
  FFT mesh divisions ........................    60   60   60
  Augmented FFT divisions ...................    61   61   60
  FFT algorithm .............................   312
  FFT cache size ............................    16
 getmpw: optimal value of mpw= 13448
 Symmetries : space group P1 (#  1); Bravais aP (primitive triclinic)
 
 getdim_nloc: deduce lmnmax  =  18, lnmax  =   6,
                      lmnmaxso=  18, lnmaxso=   6.
memory: analysis of memory needs
================================================================================
 Values of the parameters that define the memory need of the present run
     intxc =       0    ionmov =       0      iscf =      -2    lmnmax =       6
     lnmax =       6     mgfft =      60  mpssoang =       3    mqgrid =    3001
     natom =      16  nloc_mem =       1    nspden =       1   nspinor =       1
    nsppol =       1      nsym =       1    n1xccc =    2501    ntypat =       1
    occopt =       7   xclevel =       2
-    mband =         160        mffmem =           1         mkmem =         146
       mpw =       13448          nfft =      216000          nkpt =         146
================================================================================
P This job should need less than                    4868.401 Mbytes of memory.
  Rough estimation (10% accuracy) of disk space for files :
_ WF disk file :   4793.479 Mbytes ; DEN or POT disk file :      1.650 Mbytes.
================================================================================
 
 Biggest array : cg(disk), with    697.4786 MBytes.
 memana : allocated an array of    697.479 Mbytes, for testing purposes.
 memana: allocated    4868.401Mbytes, for testing purposes. 
 The job will continue.
--------------------------------------------------------------------------------
------------- Echo of variables that govern the present computation ------------
--------------------------------------------------------------------------------
-
- outvars: echo of selected default values
-   iomode0 =  0 , fftalg0 =312 , wfoptalg0 =  0
-
- outvars: echo of global parameters not present in the input file
-  max_nthreads =   64
-
 -outvars: echo values of preprocessed input variables --------
 
 These variables are accessible in NetCDF format (trf2_1o_OUT.nc)

-          iomode           3
            acell      1.1950109323E+01  1.1950109323E+01  1.1950109323E+01 Bohr
              amu      9.59400000E+01
          chkprim           0
             ecut      3.00000000E+01 Hartree
           enunit           1
-          fftalg         312
           getden          -1
             iscf          -2
           istwfk        1    0    0    0    0    0    0    0    0    0
                         0    0    0    0    0    0    0    0    0    0
                         0    0    0    0    0    0    0    0    0    0
                         0    0    0    0    0    0    0    0    0    0
                         0    0    0    0    0    0    0    0    0    0
                         0    0    0    0    0    0    0    0    0    0
                         0    0    0    0    0    0    0    0    0    0
                         0    0    0    0    0    0    0    0    0    0
                         0    0    0    0    0    0    0    0    0    0
                         0    0    0    0    0    0    0    0    0    0
                         0    0    0    0    0    0    0    0    0    0
                         0    0    0    0    0    0    0    0    0    0
                         0    0    0    0    0    0    0    0    0    0
                         0    0    0    0    0    0    0    0    0    0
                         0    0    0    0    0    1
              ixc          11
              kpt      0.00000000E+00  0.00000000E+00  0.00000000E+00
                       0.00000000E+00  3.17460300E-02  0.00000000E+00
                       0.00000000E+00  6.34920600E-02  0.00000000E+00
                       0.00000000E+00  9.52381000E-02  0.00000000E+00
                       0.00000000E+00  1.26984130E-01  0.00000000E+00
                       0.00000000E+00  1.58730160E-01  0.00000000E+00
                       0.00000000E+00  1.90476190E-01  0.00000000E+00
                       0.00000000E+00  2.22222220E-01  0.00000000E+00
                       0.00000000E+00  2.53968250E-01  0.00000000E+00
                       0.00000000E+00  2.85714290E-01  0.00000000E+00
                       0.00000000E+00  3.17460320E-01  0.00000000E+00
                       0.00000000E+00  3.49206350E-01  0.00000000E+00
                       0.00000000E+00  3.80952380E-01  0.00000000E+00
                       0.00000000E+00  4.12698410E-01  0.00000000E+00
                       0.00000000E+00  4.44444440E-01  0.00000000E+00
                       0.00000000E+00  4.76190480E-01  0.00000000E+00
                       0.00000000E+00 -4.92063490E-01  0.00000000E+00
                       0.00000000E+00 -4.60317460E-01  0.00000000E+00
                       0.00000000E+00 -4.28571430E-01  0.00000000E+00
                       0.00000000E+00 -3.96825400E-01  0.00000000E+00
                       0.00000000E+00 -3.65079370E-01  0.00000000E+00
                       0.00000000E+00 -3.33333330E-01  0.00000000E+00
                       0.00000000E+00 -3.01587300E-01  0.00000000E+00
                       0.00000000E+00 -2.69841270E-01  0.00000000E+00
                       0.00000000E+00 -2.38095240E-01  0.00000000E+00
                       0.00000000E+00 -2.06349210E-01  0.00000000E+00
                       0.00000000E+00 -1.74603170E-01  0.00000000E+00
                       0.00000000E+00 -1.42857140E-01  0.00000000E+00
                       0.00000000E+00 -1.11111110E-01  0.00000000E+00
                       0.00000000E+00 -7.93650800E-02  0.00000000E+00
                       0.00000000E+00 -4.76190500E-02  0.00000000E+00
                       0.00000000E+00 -1.58730200E-02  0.00000000E+00
                       2.22222200E-02 -2.22222200E-02  0.00000000E+00
                      -2.22222200E-02 -2.22222200E-02  0.00000000E+00
                       4.44444400E-02 -4.44444400E-02  0.00000000E+00
                      -4.44444400E-02 -4.44444400E-02  0.00000000E+00
                       6.66666700E-02 -6.66666700E-02  0.00000000E+00
                      -6.66666700E-02 -6.66666700E-02  0.00000000E+00
                       8.88888900E-02 -8.88888900E-02  0.00000000E+00
                      -8.88888900E-02 -8.88888900E-02  0.00000000E+00
                       1.11111110E-01 -1.11111110E-01  0.00000000E+00
                      -1.11111110E-01 -1.11111110E-01  0.00000000E+00
                       1.33333330E-01 -1.33333330E-01  0.00000000E+00
                      -1.33333330E-01 -1.33333330E-01  0.00000000E+00
                       1.55555560E-01 -1.55555560E-01  0.00000000E+00
                      -1.55555560E-01 -1.55555560E-01  0.00000000E+00
                       1.77777780E-01 -1.77777780E-01  0.00000000E+00
                      -1.77777780E-01 -1.77777780E-01  0.00000000E+00
                       2.00000000E-01 -2.00000000E-01  0.00000000E+00
                      -2.00000000E-01 -2.00000000E-01  0.00000000E+00
                       2.22222220E-01 -2.22222220E-01  0.00000000E+00
                      -2.22222220E-01 -2.22222220E-01  0.00000000E+00
                       2.44444440E-01 -2.44444440E-01  0.00000000E+00
                      -2.44444440E-01 -2.44444440E-01  0.00000000E+00
                       2.66666670E-01 -2.66666670E-01  0.00000000E+00
                      -2.66666670E-01 -2.66666670E-01  0.00000000E+00
                       2.88888890E-01 -2.88888890E-01  0.00000000E+00
                      -2.88888890E-01 -2.88888890E-01  0.00000000E+00
                       3.11111110E-01 -3.11111110E-01  0.00000000E+00
                      -3.11111110E-01 -3.11111110E-01  0.00000000E+00
                       3.33333330E-01 -3.33333330E-01  0.00000000E+00
                      -3.33333330E-01 -3.33333330E-01  0.00000000E+00
                       3.55555560E-01 -3.55555560E-01  0.00000000E+00
                      -3.55555560E-01 -3.55555560E-01  0.00000000E+00
                       3.77777780E-01 -3.77777780E-01  0.00000000E+00
                      -3.77777780E-01 -3.77777780E-01  0.00000000E+00
                       4.00000000E-01 -4.00000000E-01  0.00000000E+00
                      -4.00000000E-01 -4.00000000E-01  0.00000000E+00
                       4.22222220E-01 -4.22222220E-01  0.00000000E+00
                      -4.22222220E-01 -4.22222220E-01  0.00000000E+00
                       4.44444440E-01 -4.44444440E-01  0.00000000E+00
                      -4.44444440E-01 -4.44444440E-01  0.00000000E+00
                       4.66666670E-01 -4.66666670E-01  0.00000000E+00
                      -4.66666670E-01 -4.66666670E-01  0.00000000E+00
                       4.88888890E-01 -4.88888890E-01  0.00000000E+00
                      -4.88888890E-01 -4.88888890E-01  0.00000000E+00
                       1.81818200E-02  1.81818200E-02  1.81818200E-02
                       1.81818200E-02 -1.81818200E-02  1.81818200E-02
                       3.63636400E-02  3.63636400E-02  3.63636400E-02
                       3.63636400E-02 -3.63636400E-02  3.63636400E-02
                       5.45454500E-02  5.45454500E-02  5.45454500E-02
                       5.45454500E-02 -5.45454500E-02  5.45454500E-02
                       7.27272700E-02  7.27272700E-02  7.27272700E-02
                       7.27272700E-02 -7.27272700E-02  7.27272700E-02
                       9.09090900E-02  9.09090900E-02  9.09090900E-02
                       9.09090900E-02 -9.09090900E-02  9.09090900E-02
                       1.09090910E-01  1.09090910E-01  1.09090910E-01
                       1.09090910E-01 -1.09090910E-01  1.09090910E-01
                       1.27272730E-01  1.27272730E-01  1.27272730E-01
                       1.27272730E-01 -1.27272730E-01  1.27272730E-01
                       1.45454550E-01  1.45454550E-01  1.45454550E-01
                       1.45454550E-01 -1.45454550E-01  1.45454550E-01
                       1.63636360E-01  1.63636360E-01  1.63636360E-01
                       1.63636360E-01 -1.63636360E-01  1.63636360E-01
                       1.81818180E-01  1.81818180E-01  1.81818180E-01
                       1.81818180E-01 -1.81818180E-01  1.81818180E-01
                       2.00000000E-01  2.00000000E-01  2.00000000E-01
                       2.00000000E-01 -2.00000000E-01  2.00000000E-01
                       2.18181820E-01  2.18181820E-01  2.18181820E-01
                       2.18181820E-01 -2.18181820E-01  2.18181820E-01
                       2.36363640E-01  2.36363640E-01  2.36363640E-01
                       2.36363640E-01 -2.36363640E-01  2.36363640E-01
                       2.54545450E-01  2.54545450E-01  2.54545450E-01
                       2.54545450E-01 -2.54545450E-01  2.54545450E-01
                       2.72727270E-01  2.72727270E-01  2.72727270E-01
                       2.72727270E-01 -2.72727270E-01  2.72727270E-01
                       2.90909090E-01  2.90909090E-01  2.90909090E-01
                       2.90909090E-01 -2.90909090E-01  2.90909090E-01
                       3.09090910E-01  3.09090910E-01  3.09090910E-01
                       3.09090910E-01 -3.09090910E-01  3.09090910E-01
                       3.27272730E-01  3.27272730E-01  3.27272730E-01
                       3.27272730E-01 -3.27272730E-01  3.27272730E-01
                       3.45454550E-01  3.45454550E-01  3.45454550E-01
                       3.45454550E-01 -3.45454550E-01  3.45454550E-01
                       3.63636360E-01  3.63636360E-01  3.63636360E-01
                       3.63636360E-01 -3.63636360E-01  3.63636360E-01
                       3.81818180E-01  3.81818180E-01  3.81818180E-01
                       3.81818180E-01 -3.81818180E-01  3.81818180E-01
                       4.00000000E-01  4.00000000E-01  4.00000000E-01
                       4.00000000E-01 -4.00000000E-01  4.00000000E-01
                       4.18181820E-01  4.18181820E-01  4.18181820E-01
                       4.18181820E-01 -4.18181820E-01  4.18181820E-01
                       4.36363640E-01  4.36363640E-01  4.36363640E-01
                       4.36363640E-01 -4.36363640E-01  4.36363640E-01
                       4.54545450E-01  4.54545450E-01  4.54545450E-01
                       4.54545450E-01 -4.54545450E-01  4.54545450E-01
                       4.72727270E-01  4.72727270E-01  4.72727270E-01
                       4.72727270E-01 -4.72727270E-01  4.72727270E-01
                       4.90909090E-01  4.90909090E-01  4.90909090E-01
                       4.90909090E-01 -4.90909090E-01  4.90909090E-01
                       0.00000000E+00  0.00000000E+00 -3.12500000E-02
                       0.00000000E+00  0.00000000E+00 -6.25000000E-02
                       0.00000000E+00  0.00000000E+00 -9.37500000E-02
                       0.00000000E+00  0.00000000E+00 -1.25000000E-01
                       0.00000000E+00  0.00000000E+00 -1.56250000E-01
                       0.00000000E+00  0.00000000E+00 -1.87500000E-01
                       0.00000000E+00  0.00000000E+00 -2.18750000E-01
                       0.00000000E+00  0.00000000E+00 -2.50000000E-01
                       0.00000000E+00  0.00000000E+00 -2.81250000E-01
                       0.00000000E+00  0.00000000E+00 -3.12500000E-01
                       0.00000000E+00  0.00000000E+00 -3.43750000E-01
                       0.00000000E+00  0.00000000E+00 -3.75000000E-01
                       0.00000000E+00  0.00000000E+00 -4.06250000E-01
                       0.00000000E+00  0.00000000E+00 -4.37500000E-01
                       0.00000000E+00  0.00000000E+00 -4.68750000E-01
                       0.00000000E+00  0.00000000E+00  5.00000000E-01
           kptopt           0
P           mkmem         146
            natom          16
            nband         160
           nbdbuf           2
            ngfft          60      60      60
             nkpt         146
            nstep          50
             nsym           1
           ntypat           1
           occopt           7
           prtvol           2
          spgroup           1
           tolwfr      1.00000000E-12
           tsmear      5.00000000E-03 Hartree
            typat      1  1  1  1  1  1  1  1  1  1  1  1  1  1  1  1
           xangst      0.0000000000E+00  0.0000000000E+00  0.0000000000E+00
                       0.0000000000E+00  0.0000000000E+00  3.1618627471E+00
                       0.0000000000E+00  3.1618627471E+00  0.0000000000E+00
                       0.0000000000E+00  3.1618627471E+00  3.1618627471E+00
                       3.1618627471E+00  0.0000000000E+00  0.0000000000E+00
                       3.1618627471E+00  0.0000000000E+00  3.1618627471E+00
                       3.1618627471E+00  3.1618627471E+00  0.0000000000E+00
                       3.1618627471E+00  3.1618627471E+00  3.1618627471E+00
                       1.5809313735E+00  1.5809313735E+00  1.5809313735E+00
                       1.5809313735E+00  1.5809313735E+00  4.7427941206E+00
                       1.5809313735E+00  4.7427941206E+00  1.5809313735E+00
                       1.5809313735E+00  4.7427941206E+00  4.7427941206E+00
                       4.7427941206E+00  1.5809313735E+00  1.5809313735E+00
                       4.7427941206E+00  1.5809313735E+00  4.7427941206E+00
                       4.7427941206E+00  4.7427941206E+00  1.5809313735E+00
                       4.7427941206E+00  4.7427941206E+00  4.7427941206E+00
            xcart      0.0000000000E+00  0.0000000000E+00  0.0000000000E+00
                       0.0000000000E+00  0.0000000000E+00  5.9750546617E+00
                       0.0000000000E+00  5.9750546617E+00  0.0000000000E+00
                       0.0000000000E+00  5.9750546617E+00  5.9750546617E+00
                       5.9750546617E+00  0.0000000000E+00  0.0000000000E+00
                       5.9750546617E+00  0.0000000000E+00  5.9750546617E+00
                       5.9750546617E+00  5.9750546617E+00  0.0000000000E+00
                       5.9750546617E+00  5.9750546617E+00  5.9750546617E+00
                       2.9875273308E+00  2.9875273308E+00  2.9875273308E+00
                       2.9875273308E+00  2.9875273308E+00  8.9625819925E+00
                       2.9875273308E+00  8.9625819925E+00  2.9875273308E+00
                       2.9875273308E+00  8.9625819925E+00  8.9625819925E+00
                       8.9625819925E+00  2.9875273308E+00  2.9875273308E+00
                       8.9625819925E+00  2.9875273308E+00  8.9625819925E+00
                       8.9625819925E+00  8.9625819925E+00  2.9875273308E+00
                       8.9625819925E+00  8.9625819925E+00  8.9625819925E+00
             xred      0.0000000000E+00  0.0000000000E+00  0.0000000000E+00
                       0.0000000000E+00  0.0000000000E+00  5.0000000000E-01
                       0.0000000000E+00  5.0000000000E-01  0.0000000000E+00
                       0.0000000000E+00  5.0000000000E-01  5.0000000000E-01
                       5.0000000000E-01  0.0000000000E+00  0.0000000000E+00
                       5.0000000000E-01  0.0000000000E+00  5.0000000000E-01
                       5.0000000000E-01  5.0000000000E-01  0.0000000000E+00
                       5.0000000000E-01  5.0000000000E-01  5.0000000000E-01
                       2.5000000000E-01  2.5000000000E-01  2.5000000000E-01
                       2.5000000000E-01  2.5000000000E-01  7.5000000000E-01
                       2.5000000000E-01  7.5000000000E-01  2.5000000000E-01
                       2.5000000000E-01  7.5000000000E-01  7.5000000000E-01
                       7.5000000000E-01  2.5000000000E-01  2.5000000000E-01
                       7.5000000000E-01  2.5000000000E-01  7.5000000000E-01
                       7.5000000000E-01  7.5000000000E-01  2.5000000000E-01
                       7.5000000000E-01  7.5000000000E-01  7.5000000000E-01
            znucl       42.00000
 
================================================================================
 
 chkinp: Checking input parameters for consistency.
 DATA TYPE INFORMATION: 
 REAL:      Data type name: REAL(DP) 
            Kind value:      8
            Precision:      15
            Smallest nonnegligible quantity relative to 1:  0.22204460E-015
            Smallest positive number:                       0.22250739E-307
            Largest representable number:                   0.17976931E+309
 INTEGER:   Data type name: INTEGER(default) 
            Kind value: 4
            Bit size:   32
            Largest representable number: 2147483647
 LOGICAL:   Data type name: LOGICAL 
            Kind value: 4
 CHARACTER: Data type name: CHARACTER             Kind value: 1

  ==== OpenMP parallelism is ON ====
- Max_threads:       64
- Num_threads:       64
- Num_procs:         64
- Dynamic:           T
 
  ==== Using MPI-2 specifications ==== 
  MPI-IO support is ON
  xmpi_tag_ub ................       8388607
  xmpi_bsize_ch ..............             1
  xmpi_bsize_int .............             4
  xmpi_bsize_sp ..............             4
  xmpi_bsize_dp ..............             8
  xmpi_bsize_spc .............             8
  xmpi_bsize_dpc .............            16
  xmpio_bsize_frm ............             4
  xmpi_address_kind ..........             8
  xmpi_offset_kind ...........             8
  MPI_WTICK ..................    1.0000000000000001E-009
 
================================================================================
== DATASET  1 ==================================================================
-   mpi_nproc: 1, omp_nthreads: 64 (-1 if OMP is not activated)
 
 
--- !COMMENT
src_file: m_xgScalapack.F90
src_line: 241
message: |
    xgScalapack in auto mode
...
 
 
 getdim_nloc: deduce lmnmax  =  18, lnmax  =   6,
                      lmnmaxso=  18, lnmaxso=   6.
 Exchange-correlation functional for the present dataset will be:
  GGA: Perdew-Burke-Ernzerhof functional - ixc=11
 Citation for XC functional:
  J.P.Perdew, K.Burke, M.Ernzerhof, PRL 77, 3865 (1996)
 
 Unit cell volume ucvol=  1.7065367E+03 bohr^3
 Angles (23,13,12)=  9.00000000E+01  9.00000000E+01  9.00000000E+01 degrees
 
 getcut: wavevector=  0.0000  0.0000  0.0000  ngfft=  60  60  60
         ecut(hartree)=     30.000   => boxcut(ratio)=   2.03636
- pspini: atom type   1  psp file is /users/suryab/Project/pseudos/PSP/pseudo_dojo/Mo.psp8
- pspatm: opening atomic psp file    /users/suryab/Project/pseudos/PSP/pseudo_dojo/Mo.psp8
- Mo    ONCVPSP-3.2.3.1  r_core=   1.45541   1.45541   1.35488
- 42.00000  14.00000    170510                znucl, zion, pspdat
    8   11    2    4       600   0.00000      pspcod,pspxc,lmax,lloc,mmax,r2well
    5.99000000000000    3.00000000000000    0.00000000000000   rchrg,fchrg,qchrg
     nproj     2     2     2
     extension_switch     1
  valence charge (before rescaling) integrates to:     13.91061992906655     
  pspatm : epsatm=   15.95693586
         --- l  ekb(1:nproj) -->
             0   13.833287    1.350687
             1    8.015347    1.134034
             2    2.765699    0.969071
 pspatm: atomic psp has been read  and splines computed
 
   5.71896581E+04                                ecore*ucvol(ha*bohr**3)
 ==== Info on pseudopotentials ====
  Norm-conserving pseudopotentials
  Number of pseudopotentials ..    1
  Number of types of atoms   ..    1
  Scalar calculation (no spin-orbit term)
  Nonlocal part applied using Legendre polynomials
  Max number of non-local projectors over l and type   2
  Highest angular momentum +1 .......   3
  Max number of (l,n)   components ..   6
  Max number of (l,m,n) components ..   6
 
 Pseudo-Core Charge Info: 
   Number of radial points for pseudo-core charge .. 2501
   XC core-correction treatment (optnlxccc) ........    1
   Radius for pseudo-core charge for each type ..... 
 
  - Atom type    1 has pseudo-core radius ..       5.9900
 
 Info on the Q-grid used for form factors in spline form: 
   Number of q-points for radial functions ffspl ..   3001
   Number of q-points for vlspl ...................   3001
   vloc is computed in Reciprocal Space
   model core charge treated in real-space
 
  XC functional for type 1 is 11
  Pseudo valence available: yes
 
 wfconv:   160 bands initialized randomly with npw= 13397, for ikpt=     1
 wfconv:   160 bands initialized randomly with npw= 13349, for ikpt=     2
 wfconv:   160 bands initialized randomly with npw= 13357, for ikpt=     3
 wfconv:   160 bands initialized randomly with npw= 13377, for ikpt=     4
 wfconv:   160 bands initialized randomly with npw= 13381, for ikpt=     5
 wfconv:   160 bands initialized randomly with npw= 13397, for ikpt=     6
 wfconv:   160 bands initialized randomly with npw= 13413, for ikpt=     7
 wfconv:   160 bands initialized randomly with npw= 13417, for ikpt=     8
 wfconv:   160 bands initialized randomly with npw= 13417, for ikpt=     9
 wfconv:   160 bands initialized randomly with npw= 13386, for ikpt=    10
 wfconv:   160 bands initialized randomly with npw= 13382, for ikpt=    11
 wfconv:   160 bands initialized randomly with npw= 13374, for ikpt=    12
 wfconv:   160 bands initialized randomly with npw= 13394, for ikpt=    13
 wfconv:   160 bands initialized randomly with npw= 13410, for ikpt=    14
 wfconv:   160 bands initialized randomly with npw= 13394, for ikpt=    15
 wfconv:   160 bands initialized randomly with npw= 13398, for ikpt=    16
 wfconv:   160 bands initialized randomly with npw= 13350, for ikpt=    17
 wfconv:   160 bands initialized randomly with npw= 13398, for ikpt=    18
 wfconv:   160 bands initialized randomly with npw= 13390, for ikpt=    19
 wfconv:   160 bands initialized randomly with npw= 13386, for ikpt=    20
 wfconv:   160 bands initialized randomly with npw= 13382, for ikpt=    21
 wfconv:   160 bands initialized randomly with npw= 13350, for ikpt=    22
 wfconv:   160 bands initialized randomly with npw= 13402, for ikpt=    23
 wfconv:   160 bands initialized randomly with npw= 13410, for ikpt=    24
 wfconv:   160 bands initialized randomly with npw= 13425, for ikpt=    25
 wfconv:   160 bands initialized randomly with npw= 13425, for ikpt=    26
 wfconv:   160 bands initialized randomly with npw= 13397, for ikpt=    27
 wfconv:   160 bands initialized randomly with npw= 13397, for ikpt=    28
 wfconv:   160 bands initialized randomly with npw= 13381, for ikpt=    29
 wfconv:   160 bands initialized randomly with npw= 13381, for ikpt=    30
 wfconv:   160 bands initialized randomly with npw= 13357, for ikpt=    31
 wfconv:   160 bands initialized randomly with npw= 13349, for ikpt=    32
 wfconv:   160 bands initialized randomly with npw= 13349, for ikpt=    33
 wfconv:   160 bands initialized randomly with npw= 13349, for ikpt=    34
 wfconv:   160 bands initialized randomly with npw= 13355, for ikpt=    35
 wfconv:   160 bands initialized randomly with npw= 13355, for ikpt=    36
 wfconv:   160 bands initialized randomly with npw= 13363, for ikpt=    37
 wfconv:   160 bands initialized randomly with npw= 13363, for ikpt=    38
 wfconv:   160 bands initialized randomly with npw= 13367, for ikpt=    39
 wfconv:   160 bands initialized randomly with npw= 13367, for ikpt=    40
 wfconv:   160 bands initialized randomly with npw= 13389, for ikpt=    41
 wfconv:   160 bands initialized randomly with npw= 13389, for ikpt=    42
 wfconv:   160 bands initialized randomly with npw= 13405, for ikpt=    43
 wfconv:   160 bands initialized randomly with npw= 13405, for ikpt=    44
 wfconv:   160 bands initialized randomly with npw= 13387, for ikpt=    45
 wfconv:   160 bands initialized randomly with npw= 13387, for ikpt=    46
 wfconv:   160 bands initialized randomly with npw= 13393, for ikpt=    47
 wfconv:   160 bands initialized randomly with npw= 13393, for ikpt=    48
 wfconv:   160 bands initialized randomly with npw= 13389, for ikpt=    49
 wfconv:   160 bands initialized randomly with npw= 13389, for ikpt=    50
 About to read data(r) from: trf2_1i_DEN
 
================================================================================
 
          - hdr_check: checking restart file header for consistency -
 
 
          current calculation                           restart file
          -------------------                           ------------
 
  calculation expects a density             |  input file contains a density
. ABINIT  code version 10.4.5               |  ABINIT  code version 10.4.5
. date 20260310 bantot    23360 natom   16  |  date 20260310 bantot    41600 natom   16
  nkpt     146 nsym  1 ngfft  60,  60,  60  |  nkpt     260 nsym  1 ngfft  60,  60,  60
  ntypat  1 ecut_eff  30.0000000            |  ntypat  1 ecut_eff  30.0000000
  usepaw  0                                 |  usepaw  0
  usewvl  0                                 |  usewvl  0
  rprimd:                                   |  rprimd:
    11.9501093   0.0000000   0.0000000      |    11.9501093   0.0000000   0.0000000
     0.0000000  11.9501093   0.0000000      |     0.0000000  11.9501093   0.0000000
     0.0000000   0.0000000  11.9501093      |     0.0000000   0.0000000  11.9501093
  symafm:                                   |  symafm:
    1                                       |    1
  symrel:                                   |  symrel:
    1  0  0  0  1  0  0  0  1               |    1  0  0  0  1  0  0  0  1
  typat:                                    |  typat:
    1  1  1  1  1  1  1  1  1  1  1  1      |    1  1  1  1  1  1  1  1  1  1  1  1
    1  1  1  1                              |    1  1  1  1
  so_psp  :                                 |  so_psp  :
    1                                       |    1
 
--- !COMMENT
src_file: m_hdr.F90
src_line: 4227
message: |
    input kptrlatt = 0 0 0 0 0 0 0 0 0  /= disk file kptrlatt = 8 0 0 0 8 0 0 0 8
...
 
 
--- !COMMENT
src_file: m_hdr.F90
src_line: 4230
message: |
    input kptopt = 0  /= disk file kptopt = 1
...
 
 
--- !WARNING
src_file: m_hdr.F90
src_line: 4251
message: |
    input ival=0 not equal disk file ival=112
...
 
  tnons:                                    |  tnons:
     0.0000000   0.0000000   0.0000000      |     0.0000000   0.0000000   0.0000000
   znucl:                                   |   znucl:
   42.00                                    |       42.00
  pseudopotential atom type  1:             |  pseudopotential atom type  1:
  pspso   0 pspxc  11                       |  pspso   0 pspxc  11
  pspdat   170510 pspcod    8 zion  14.0    |  pspdat   170510 pspcod    8 zion  14.0
  xred:                                     |  xred:
     0.0000000   0.0000000   0.0000000      |     0.0000000   0.0000000   0.0000000
     0.0000000   0.0000000   0.5000000      |     0.0000000   0.0000000   0.5000000
     0.0000000   0.5000000   0.0000000      |     0.0000000   0.5000000   0.0000000
     0.0000000   0.5000000   0.5000000      |     0.0000000   0.5000000   0.5000000
     0.5000000   0.0000000   0.0000000      |     0.5000000   0.0000000   0.0000000
     0.5000000   0.0000000   0.5000000      |     0.5000000   0.0000000   0.5000000
     0.5000000   0.5000000   0.0000000      |     0.5000000   0.5000000   0.0000000
     0.5000000   0.5000000   0.5000000      |     0.5000000   0.5000000   0.5000000
     0.2500000   0.2500000   0.2500000      |     0.2500000   0.2500000   0.2500000
     0.2500000   0.2500000   0.7500000      |     0.2500000   0.2500000   0.7500000
     0.2500000   0.7500000   0.2500000      |     0.2500000   0.7500000   0.2500000
     0.2500000   0.7500000   0.7500000      |     0.2500000   0.7500000   0.7500000
     0.7500000   0.2500000   0.2500000      |     0.7500000   0.2500000   0.2500000
     0.7500000   0.2500000   0.7500000      |     0.7500000   0.2500000   0.7500000
     0.7500000   0.7500000   0.2500000      |     0.7500000   0.7500000   0.2500000
     0.7500000   0.7500000   0.7500000      |     0.7500000   0.7500000   0.7500000
 hdr_check:  Density/Potential file is OK for restart of calculation
================================================================================
 read_rhor , wall:  0.02 [s] , cpu:  0.02 [s] <<< TIME
 
================================================================================
 
 getcut: wavevector=  0.0000  0.0000  0.0000  ngfft=  60  60  60
         ecut(hartree)=     30.000   => boxcut(ratio)=   2.03636
 
 1/G**2 cut-off applied in the following step : cutoff-mode = CRYSTAL
 
 1/G**2 cut-off applied in the following step : cutoff-mode = CRYSTAL
 
 1/G**2 cut-off applied in the following step : cutoff-mode = CRYSTAL
 vtorho: nnsclo_now = 50, note that nnsclo, dbl_nnsclo, istep= 0 0 1
 cgwf: tolwfr_diago=    1.000000E-12
 Performing subspace diagonalization.
 Calling pw_orthon to orthonormalize bands.
 k-point: [ 1 / 146 ], spin: 1
   Max resid = 1.80291E+00  (exclude nbdbuf bands). One NSCF iteration cpu-time:  7.00 [s] , wall-time:  7.00 [s]
 Performing subspace diagonalization.
 Calling pw_orthon to orthonormalize bands.
   Max resid = 1.45558E-01  (exclude nbdbuf bands). One NSCF iteration cpu-time:  7.06 [s] , wall-time:  7.06 [s]
 Performing subspace diagonalization.
 Calling pw_orthon to orthonormalize bands.
   Max resid = 8.95702E-02  (exclude nbdbuf bands). One NSCF iteration cpu-time:  7.20 [s] , wall-time:  7.20 [s]
   Printing residuals every mod(20) iterations...
 Performing subspace diagonalization.
 Calling pw_orthon to orthonormalize bands.
 Performing subspace diagonalization.
 Calling pw_orthon to orthonormalize bands.
 Performing subspace diagonalization.
 Calling pw_orthon to orthonormalize bands.
 Performing subspace diagonalization.
 Calling pw_orthon to orthonormalize bands.
 Performing subspace diagonalization.
 Calling pw_orthon to orthonormalize bands.
 Performing subspace diagonalization.
 Calling pw_orthon to orthonormalize bands.
 Performing subspace diagonalization.
 Calling pw_orthon to orthonormalize bands.
 Performing subspace diagonalization.
 Calling pw_orthon to orthonormalize bands.
 Performing subspace diagonalization.
 Calling pw_orthon to orthonormalize bands.
 Performing subspace diagonalization.
 Calling pw_orthon to orthonormalize bands.
 Performing subspace diagonalization.
 Calling pw_orthon to orthonormalize bands.
 Performing subspace diagonalization.
 Calling pw_orthon to orthonormalize bands.
 Performing subspace diagonalization.
 Calling pw_orthon to orthonormalize bands.
   NSCF loop completed after 16 iterations
 Performing subspace diagonalization.
 Calling pw_orthon to orthonormalize bands.
 Performing subspace diagonalization.
 Calling pw_orthon to orthonormalize bands.
 Performing subspace diagonalization.
 Calling pw_orthon to orthonormalize bands.
 Performing subspace diagonalization.
 Calling pw_orthon to orthonormalize bands.
 Performing subspace diagonalization.
 Calling pw_orthon to orthonormalize bands.
 Performing subspace diagonalization.
 Calling pw_orthon to orthonormalize bands.
 Performing subspace diagonalization.
 Calling pw_orthon to orthonormalize bands.
 Performing subspace diagonalization.
 Calling pw_orthon to orthonormalize bands.
 Performing subspace diagonalization.
 Calling pw_orthon to orthonormalize bands.
 Performing subspace diagonalization.
 Calling pw_orthon to orthonormalize bands.
 Performing subspace diagonalization.
 Calling pw_orthon to orthonormalize bands.
 Performing subspace diagonalization.
 Calling pw_orthon to orthonormalize bands.
 Performing subspace diagonalization.
 Calling pw_orthon to orthonormalize bands.
 Performing subspace diagonalization.
 Calling pw_orthon to orthonormalize bands.
 Performing subspace diagonalization.
 Calling pw_orthon to orthonormalize bands.
 Performing subspace diagonalization.
 Calling pw_orthon to orthonormalize bands.
 Performing subspace diagonalization.
 Calling pw_orthon to orthonormalize bands.
 Performing subspace diagonalization.
 Calling pw_orthon to orthonormalize bands.
 Performing subspace diagonalization.
 Calling pw_orthon to orthonormalize bands.
 Performing subspace diagonalization.
 Calling pw_orthon to orthonormalize bands.
 Performing subspace diagonalization.
 Calling pw_orthon to orthonormalize bands.
 Performing subspace diagonalization.
 Calling pw_orthon to orthonormalize bands.
 Performing subspace diagonalization.
 Calling pw_orthon to orthonormalize bands.
 Performing subspace diagonalization.
 Calling pw_orthon to orthonormalize bands.
 Performing subspace diagonalization.
 Calling pw_orthon to orthonormalize bands.
 Performing subspace diagonalization.
 Calling pw_orthon to orthonormalize bands.
 Performing subspace diagonalization.
 Calling pw_orthon to orthonormalize bands.
 Performing subspace diagonalization.
 Calling pw_orthon to orthonormalize bands.
 Performing subspace diagonalization.
 Calling pw_orthon to orthonormalize bands.
 Performing subspace diagonalization.
 Calling pw_orthon to orthonormalize bands.
 Performing subspace diagonalization.
 Calling pw_orthon to orthonormalize bands.
 Performing subspace diagonalization.
 Calling pw_orthon to orthonormalize bands.
 Performing subspace diagonalization.
 Calling pw_orthon to orthonormalize bands.
 Performing subspace diagonalization.
 Calling pw_orthon to orthonormalize bands.
 Performing subspace diagonalization.
 Calling pw_orthon to orthonormalize bands.
 Performing subspace diagonalization.
 Calling pw_orthon to orthonormalize bands.
 Performing subspace diagonalization.
 Calling pw_orthon to orthonormalize bands.
 Performing subspace diagonalization.
 Calling pw_orthon to orthonormalize bands.
 Performing subspace diagonalization.
 Calling pw_orthon to orthonormalize bands.
 Performing subspace diagonalization.
 Calling pw_orthon to orthonormalize bands.
 Performing subspace diagonalization.
 Calling pw_orthon to orthonormalize bands.
 Performing subspace diagonalization.
 Calling pw_orthon to orthonormalize bands.
 Performing subspace diagonalization.
 Calling pw_orthon to orthonormalize bands.
 Performing subspace diagonalization.
 Calling pw_orthon to orthonormalize bands.
 Performing subspace diagonalization.
 Calling pw_orthon to orthonormalize bands.
 Performing subspace diagonalization.
 Calling pw_orthon to orthonormalize bands.
 Performing subspace diagonalization.
 Calling pw_orthon to orthonormalize bands.
 Performing subspace diagonalization.
 Calling pw_orthon to orthonormalize bands.
 Performing subspace diagonalization.
 Calling pw_orthon to orthonormalize bands.
 Performing subspace diagonalization.
 Calling pw_orthon to orthonormalize bands.
 Performing subspace diagonalization.
 Calling pw_orthon to orthonormalize bands.
 Performing subspace diagonalization.
 Calling pw_orthon to orthonormalize bands.
 Performing subspace diagonalization.
 Calling pw_orthon to orthonormalize bands.
 Performing subspace diagonalization.
 Calling pw_orthon to orthonormalize bands.
 Performing subspace diagonalization.
 Calling pw_orthon to orthonormalize bands.
 Performing subspace diagonalization.
 Calling pw_orthon to orthonormalize bands.
 Performing subspace diagonalization.
 Calling pw_orthon to orthonormalize bands.
 Performing subspace diagonalization.
 Calling pw_orthon to orthonormalize bands.
 Performing subspace diagonalization.
 Calling pw_orthon to orthonormalize bands.
 Performing subspace diagonalization.
 Calling pw_orthon to orthonormalize bands.
 Performing subspace diagonalization.
 Calling pw_orthon to orthonormalize bands.
 Performing subspace diagonalization.
 Calling pw_orthon to orthonormalize bands.
 Performing subspace diagonalization.
 Calling pw_orthon to orthonormalize bands.
 Performing subspace diagonalization.
 Calling pw_orthon to orthonormalize bands.
 Performing subspace diagonalization.
 Calling pw_orthon to orthonormalize bands.
 Performing subspace diagonalization.
 Calling pw_orthon to orthonormalize bands.
 Performing subspace diagonalization.
 Calling pw_orthon to orthonormalize bands.
 Performing subspace diagonalization.
 Calling pw_orthon to orthonormalize bands.
 Performing subspace diagonalization.
 Calling pw_orthon to orthonormalize bands.
 Performing subspace diagonalization.
 Calling pw_orthon to orthonormalize bands.
 Performing subspace diagonalization.
 Calling pw_orthon to orthonormalize bands.
 Performing subspace diagonalization.
 Calling pw_orthon to orthonormalize bands.
 Performing subspace diagonalization.
 Calling pw_orthon to orthonormalize bands.
 Performing subspace diagonalization.
 Calling pw_orthon to orthonormalize bands.
 Performing subspace diagonalization.
 Calling pw_orthon to orthonormalize bands.
 Performing subspace diagonalization.
 Calling pw_orthon to orthonormalize bands.
 Performing subspace diagonalization.
 Calling pw_orthon to orthonormalize bands.
 Performing subspace diagonalization.
 Calling pw_orthon to orthonormalize bands.
 Performing subspace diagonalization.
 Calling pw_orthon to orthonormalize bands.
 Performing subspace diagonalization.
 Calling pw_orthon to orthonormalize bands.
 Performing subspace diagonalization.
 Calling pw_orthon to orthonormalize bands.
 Performing subspace diagonalization.
 Calling pw_orthon to orthonormalize bands.
 Performing subspace diagonalization.
 Calling pw_orthon to orthonormalize bands.
 Performing subspace diagonalization.
 Calling pw_orthon to orthonormalize bands.
 Performing subspace diagonalization.
 Calling pw_orthon to orthonormalize bands.
 Performing subspace diagonalization.
 Calling pw_orthon to orthonormalize bands.
 Performing subspace diagonalization.
 Calling pw_orthon to orthonormalize bands.
 Performing subspace diagonalization.
 Calling pw_orthon to orthonormalize bands.
 Performing subspace diagonalization.
 Calling pw_orthon to orthonormalize bands.
 Performing subspace diagonalization.
 Calling pw_orthon to orthonormalize bands.
 Performing subspace diagonalization.
 Calling pw_orthon to orthonormalize bands.
 Performing subspace diagonalization.
 Calling pw_orthon to orthonormalize bands.
 Performing subspace diagonalization.
 Calling pw_orthon to orthonormalize bands.
 Performing subspace diagonalization.
 Calling pw_orthon to orthonormalize bands.
 Performing subspace diagonalization.
 Calling pw_orthon to orthonormalize bands.
 Performing subspace diagonalization.
 Calling pw_orthon to orthonormalize bands.
 Performing subspace diagonalization.
 Calling pw_orthon to orthonormalize bands.
 Performing subspace diagonalization.
 Calling pw_orthon to orthonormalize bands.
 Performing subspace diagonalization.
 Calling pw_orthon to orthonormalize bands.
 Performing subspace diagonalization.
 Calling pw_orthon to orthonormalize bands.
 Performing subspace diagonalization.
 Calling pw_orthon to orthonormalize bands.
 Performing subspace diagonalization.
 Calling pw_orthon to orthonormalize bands.
 Performing subspace diagonalization.
 Calling pw_orthon to orthonormalize bands.
 Performing subspace diagonalization.
 Calling pw_orthon to orthonormalize bands.
 Performing subspace diagonalization.
 Calling pw_orthon to orthonormalize bands.
 Performing subspace diagonalization.
 Calling pw_orthon to orthonormalize bands.
 Performing subspace diagonalization.
 Calling pw_orthon to orthonormalize bands.
 Performing subspace diagonalization.
 Calling pw_orthon to orthonormalize bands.
 Performing subspace diagonalization.
 Calling pw_orthon to orthonormalize bands.
 Performing subspace diagonalization.
 Calling pw_orthon to orthonormalize bands.
 Performing subspace diagonalization.
 Calling pw_orthon to orthonormalize bands.
 Performing subspace diagonalization.
 Calling pw_orthon to orthonormalize bands.
 Performing subspace diagonalization.
 Calling pw_orthon to orthonormalize bands.
 Performing subspace diagonalization.
 Calling pw_orthon to orthonormalize bands.
 Performing subspace diagonalization.
 Calling pw_orthon to orthonormalize bands.
 Performing subspace diagonalization.
 Calling pw_orthon to orthonormalize bands.
 Performing subspace diagonalization.
 Calling pw_orthon to orthonormalize bands.
 Performing subspace diagonalization.
 Calling pw_orthon to orthonormalize bands.
 Performing subspace diagonalization.
 Calling pw_orthon to orthonormalize bands.
 Performing subspace diagonalization.
 Calling pw_orthon to orthonormalize bands.
 Performing subspace diagonalization.
 Calling pw_orthon to orthonormalize bands.
 Performing subspace diagonalization.
 Calling pw_orthon to orthonormalize bands.
 Performing subspace diagonalization.
 Calling pw_orthon to orthonormalize bands.
 Performing subspace diagonalization.
 Calling pw_orthon to orthonormalize bands.
 Performing subspace diagonalization.
 Calling pw_orthon to orthonormalize bands.
 Performing subspace diagonalization.
 Calling pw_orthon to orthonormalize bands.
 Performing subspace diagonalization.
 Calling pw_orthon to orthonormalize bands.
 Performing subspace diagonalization.
 Calling pw_orthon to orthonormalize bands.
 Performing subspace diagonalization.
 Calling pw_orthon to orthonormalize bands.
 Performing subspace diagonalization.
 Calling pw_orthon to orthonormalize bands.
 Performing subspace diagonalization.
 Calling pw_orthon to orthonormalize bands.
 Performing subspace diagonalization.
 Calling pw_orthon to orthonormalize bands.
 Performing subspace diagonalization.
 Calling pw_orthon to orthonormalize bands.
 Performing subspace diagonalization.
 Calling pw_orthon to orthonormalize bands.
 Performing subspace diagonalization.
 Calling pw_orthon to orthonormalize bands.
 Performing subspace diagonalization.
 Calling pw_orthon to orthonormalize bands.
 Performing subspace diagonalization.
 Calling pw_orthon to orthonormalize bands.
 Performing subspace diagonalization.
 Calling pw_orthon to orthonormalize bands.
 Performing subspace diagonalization.
 Calling pw_orthon to orthonormalize bands.
 Performing subspace diagonalization.
 Calling pw_orthon to orthonormalize bands.
 Performing subspace diagonalization.
 Calling pw_orthon to orthonormalize bands.
 Performing subspace diagonalization.
 Calling pw_orthon to orthonormalize bands.
 Performing subspace diagonalization.
 Calling pw_orthon to orthonormalize bands.
 Performing subspace diagonalization.
 Calling pw_orthon to orthonormalize bands.
 Performing subspace diagonalization.
 Calling pw_orthon to orthonormalize bands.
 Performing subspace diagonalization.
 Calling pw_orthon to orthonormalize bands.
 Performing subspace diagonalization.
 Calling pw_orthon to orthonormalize bands.
 Performing subspace diagonalization.
 Calling pw_orthon to orthonormalize bands.
 Performing subspace diagonalization.
 Calling pw_orthon to orthonormalize bands.
 Performing subspace diagonalization.
 Calling pw_orthon to orthonormalize bands.
 Performing subspace diagonalization.
 Calling pw_orthon to orthonormalize bands.
 Performing subspace diagonalization.
 Calling pw_orthon to orthonormalize bands.
 Performing subspace diagonalization.
 Calling pw_orthon to orthonormalize bands.
 Performing subspace diagonalization.
 Calling pw_orthon to orthonormalize bands.
 Performing subspace diagonalization.
 Calling pw_orthon to orthonormalize bands.
 Performing subspace diagonalization.
 Calling pw_orthon to orthonormalize bands.
 Performing subspace diagonalization.
 Calling pw_orthon to orthonormalize bands.
 Performing subspace diagonalization.
 Calling pw_orthon to orthonormalize bands.
 Performing subspace diagonalization.
 Calling pw_orthon to orthonormalize bands.
 Performing subspace diagonalization.
 Calling pw_orthon to orthonormalize bands.
 Performing subspace diagonalization.
 Calling pw_orthon to orthonormalize bands.
 Performing subspace diagonalization.
 Calling pw_orthon to orthonormalize bands.
 Performing subspace diagonalization.
 Calling pw_orthon to orthonormalize bands.
 Performing subspace diagonalization.
 Calling pw_orthon to orthonormalize bands.
 Performing subspace diagonalization.
 Calling pw_orthon to orthonormalize bands.
 Performing subspace diagonalization.
 Calling pw_orthon to orthonormalize bands.
 Performing subspace diagonalization.
 Calling pw_orthon to orthonormalize bands.
 Performing subspace diagonalization.
 Calling pw_orthon to orthonormalize bands.
 Performing subspace diagonalization.
 Calling pw_orthon to orthonormalize bands.
 Performing subspace diagonalization.
 Calling pw_orthon to orthonormalize bands.
 Performing subspace diagonalization.
 Calling pw_orthon to orthonormalize bands.
 Performing subspace diagonalization.
 Calling pw_orthon to orthonormalize bands.
 Performing subspace diagonalization.
 Calling pw_orthon to orthonormalize bands.
 Performing subspace diagonalization.
 Calling pw_orthon to orthonormalize bands.
 Performing subspace diagonalization.
 Calling pw_orthon to orthonormalize bands.
 Performing subspace diagonalization.
 Calling pw_orthon to orthonormalize bands.
 Performing subspace diagonalization.
 Calling pw_orthon to orthonormalize bands.
 Performing subspace diagonalization.
 Calling pw_orthon to orthonormalize bands.
 Performing subspace diagonalization.
 Calling pw_orthon to orthonormalize bands.
 Performing subspace diagonalization.
 Calling pw_orthon to orthonormalize bands.
 Performing subspace diagonalization.
 Calling pw_orthon to orthonormalize bands.
 Performing subspace diagonalization.
 Calling pw_orthon to orthonormalize bands.
 Performing subspace diagonalization.
 Calling pw_orthon to orthonormalize bands.
 Performing subspace diagonalization.
 Calling pw_orthon to orthonormalize bands.
 Performing subspace diagonalization.
 Calling pw_orthon to orthonormalize bands.
 Performing subspace diagonalization.
 Calling pw_orthon to orthonormalize bands.
 Performing subspace diagonalization.
 Calling pw_orthon to orthonormalize bands.
 Performing subspace diagonalization.
 Calling pw_orthon to orthonormalize bands.
 Performing subspace diagonalization.
 Calling pw_orthon to orthonormalize bands.
 Performing subspace diagonalization.
 Calling pw_orthon to orthonormalize bands.
 Performing subspace diagonalization.
 Calling pw_orthon to orthonormalize bands.
 Performing subspace diagonalization.
 Calling pw_orthon to orthonormalize bands.
 Performing subspace diagonalization.
 Calling pw_orthon to orthonormalize bands.
 Performing subspace diagonalization.
 Calling pw_orthon to orthonormalize bands.
 Performing subspace diagonalization.
 Calling pw_orthon to orthonormalize bands.
 Performing subspace diagonalization.
 Calling pw_orthon to orthonormalize bands.
 Performing subspace diagonalization.
 Calling pw_orthon to orthonormalize bands.
 Performing subspace diagonalization.
 Calling pw_orthon to orthonormalize bands.
 Performing subspace diagonalization.
 Calling pw_orthon to orthonormalize bands.
 Performing subspace diagonalization.
 Calling pw_orthon to orthonormalize bands.
 Performing subspace diagonalization.
 Calling pw_orthon to orthonormalize bands.
 Performing subspace diagonalization.
 Calling pw_orthon to orthonormalize bands.
 Performing subspace diagonalization.
 Calling pw_orthon to orthonormalize bands.
 Performing subspace diagonalization.
 Calling pw_orthon to orthonormalize bands.
 Performing subspace diagonalization.
 Calling pw_orthon to orthonormalize bands.
 Performing subspace diagonalization.
 Calling pw_orthon to orthonormalize bands.
 Performing subspace diagonalization.
 Calling pw_orthon to orthonormalize bands.
 Performing subspace diagonalization.
 Calling pw_orthon to orthonormalize bands.
 Performing subspace diagonalization.
 Calling pw_orthon to orthonormalize bands.
 Performing subspace diagonalization.
 Calling pw_orthon to orthonormalize bands.
 Performing subspace diagonalization.
 Calling pw_orthon to orthonormalize bands.
 Performing subspace diagonalization.
 Calling pw_orthon to orthonormalize bands.
 Performing subspace diagonalization.
 Calling pw_orthon to orthonormalize bands.
 Performing subspace diagonalization.
 Calling pw_orthon to orthonormalize bands.
 Performing subspace diagonalization.
 Calling pw_orthon to orthonormalize bands.
 Performing subspace diagonalization.
 Calling pw_orthon to orthonormalize bands.
 Performing subspace diagonalization.
 Calling pw_orthon to orthonormalize bands.
 Performing subspace diagonalization.
 Calling pw_orthon to orthonormalize bands.
 Performing subspace diagonalization.
 Calling pw_orthon to orthonormalize bands.
 Performing subspace diagonalization.
 Calling pw_orthon to orthonormalize bands.
 Performing subspace diagonalization.
 Calling pw_orthon to orthonormalize bands.
 Performing subspace diagonalization.
 Calling pw_orthon to orthonormalize bands.
 Performing subspace diagonalization.
 Calling pw_orthon to orthonormalize bands.
 Performing subspace diagonalization.
 Calling pw_orthon to orthonormalize bands.
 Performing subspace diagonalization.
 Calling pw_orthon to orthonormalize bands.
 Performing subspace diagonalization.
 Calling pw_orthon to orthonormalize bands.
 Performing subspace diagonalization.
 Calling pw_orthon to orthonormalize bands.
 Performing subspace diagonalization.
 Calling pw_orthon to orthonormalize bands.
 Performing subspace diagonalization.
 Calling pw_orthon to orthonormalize bands.
 Performing subspace diagonalization.
 Calling pw_orthon to orthonormalize bands.
 Performing subspace diagonalization.
 Calling pw_orthon to orthonormalize bands.
 Performing subspace diagonalization.
 Calling pw_orthon to orthonormalize bands.
 Performing subspace diagonalization.
 Calling pw_orthon to orthonormalize bands.
 Performing subspace diagonalization.
 Calling pw_orthon to orthonormalize bands.
 Performing subspace diagonalization.
 Calling pw_orthon to orthonormalize bands.
 Performing subspace diagonalization.
 Calling pw_orthon to orthonormalize bands.
 Performing subspace diagonalization.
 Calling pw_orthon to orthonormalize bands.
 Performing subspace diagonalization.
 Calling pw_orthon to orthonormalize bands.
 Performing subspace diagonalization.
 Calling pw_orthon to orthonormalize bands.
 Performing subspace diagonalization.
 Calling pw_orthon to orthonormalize bands.
 Performing subspace diagonalization.
 Calling pw_orthon to orthonormalize bands.
 Performing subspace diagonalization.
 Calling pw_orthon to orthonormalize bands.
 Performing subspace diagonalization.
 Calling pw_orthon to orthonormalize bands.
 Performing subspace diagonalization.
 Calling pw_orthon to orthonormalize bands.
 Performing subspace diagonalization.
 Calling pw_orthon to orthonormalize bands.
 Performing subspace diagonalization.
 Calling pw_orthon to orthonormalize bands.
 Performing subspace diagonalization.
 Calling pw_orthon to orthonormalize bands.
 Performing subspace diagonalization.
 Calling pw_orthon to orthonormalize bands.
 Performing subspace diagonalization.
 Calling pw_orthon to orthonormalize bands.
 Performing subspace diagonalization.
 Calling pw_orthon to orthonormalize bands.
 Performing subspace diagonalization.
 Calling pw_orthon to orthonormalize bands.
 Performing subspace diagonalization.
 Calling pw_orthon to orthonormalize bands.
 Performing subspace diagonalization.
 Calling pw_orthon to orthonormalize bands.
 Performing subspace diagonalization.
 Calling pw_orthon to orthonormalize bands.
 Performing subspace diagonalization.
 Calling pw_orthon to orthonormalize bands.
 Performing subspace diagonalization.
 Calling pw_orthon to orthonormalize bands.
 Performing subspace diagonalization.
 Calling pw_orthon to orthonormalize bands.
 Performing subspace diagonalization.
 Calling pw_orthon to orthonormalize bands.
 Performing subspace diagonalization.
 Calling pw_orthon to orthonormalize bands.
 Performing subspace diagonalization.
 Calling pw_orthon to orthonormalize bands.
 Performing subspace diagonalization.
 Calling pw_orthon to orthonormalize bands.
 Performing subspace diagonalization.
 Calling pw_orthon to orthonormalize bands.
 Performing subspace diagonalization.
 Calling pw_orthon to orthonormalize bands.
 Performing subspace diagonalization.
 Calling pw_orthon to orthonormalize bands.
 Performing subspace diagonalization.
 Calling pw_orthon to orthonormalize bands.
 Performing subspace diagonalization.
 Calling pw_orthon to orthonormalize bands.
 Performing subspace diagonalization.
 Calling pw_orthon to orthonormalize bands.
 Performing subspace diagonalization.
 Calling pw_orthon to orthonormalize bands.
 Performing subspace diagonalization.
 Calling pw_orthon to orthonormalize bands.
 Performing subspace diagonalization.
 Calling pw_orthon to orthonormalize bands.
 Performing subspace diagonalization.
 Calling pw_orthon to orthonormalize bands.
 Performing subspace diagonalization.
 Calling pw_orthon to orthonormalize bands.
 Performing subspace diagonalization.
 Calling pw_orthon to orthonormalize bands.
 Performing subspace diagonalization.
 Calling pw_orthon to orthonormalize bands.
 Performing subspace diagonalization.
 Calling pw_orthon to orthonormalize bands.
 Performing subspace diagonalization.
 Calling pw_orthon to orthonormalize bands.
 Performing subspace diagonalization.
 Calling pw_orthon to orthonormalize bands.
 Performing subspace diagonalization.
 Calling pw_orthon to orthonormalize bands.
 Performing subspace diagonalization.
 Calling pw_orthon to orthonormalize bands.
 Performing subspace diagonalization.
 Calling pw_orthon to orthonormalize bands.
 Performing subspace diagonalization.
 Calling pw_orthon to orthonormalize bands.
 Performing subspace diagonalization.
 Calling pw_orthon to orthonormalize bands.
 Performing subspace diagonalization.
 Calling pw_orthon to orthonormalize bands.
 Performing subspace diagonalization.
 Calling pw_orthon to orthonormalize bands.
 Performing subspace diagonalization.
 Calling pw_orthon to orthonormalize bands.
 Performing subspace diagonalization.
 Calling pw_orthon to orthonormalize bands.
 Performing subspace diagonalization.
 Calling pw_orthon to orthonormalize bands.
 Performing subspace diagonalization.
 Calling pw_orthon to orthonormalize bands.
 Performing subspace diagonalization.
 Calling pw_orthon to orthonormalize bands.
 Performing subspace diagonalization.
 Calling pw_orthon to orthonormalize bands.
 Performing subspace diagonalization.
 Calling pw_orthon to orthonormalize bands.
 Performing subspace diagonalization.
 Calling pw_orthon to orthonormalize bands.
 Performing subspace diagonalization.
 Calling pw_orthon to orthonormalize bands.
 Performing subspace diagonalization.
 Calling pw_orthon to orthonormalize bands.
 Performing subspace diagonalization.
 Calling pw_orthon to orthonormalize bands.
 Performing subspace diagonalization.
 Calling pw_orthon to orthonormalize bands.
 Performing subspace diagonalization.
 Calling pw_orthon to orthonormalize bands.
 Performing subspace diagonalization.
 Calling pw_orthon to orthonormalize bands.
 Performing subspace diagonalization.
 Calling pw_orthon to orthonormalize bands.
 Performing subspace diagonalization.
 Calling pw_orthon to orthonormalize bands.
 Performing subspace diagonalization.
 Calling pw_orthon to orthonormalize bands.
 Performing subspace diagonalization.
 Calling pw_orthon to orthonormalize bands.
 Performing subspace diagonalization.
 Calling pw_orthon to orthonormalize bands.
 Performing subspace diagonalization.
 Calling pw_orthon to orthonormalize bands.
 Performing subspace diagonalization.
 Calling pw_orthon to orthonormalize bands.
 Performing subspace diagonalization.
 Calling pw_orthon to orthonormalize bands.
 Performing subspace diagonalization.
 Calling pw_orthon to orthonormalize bands.
 Performing subspace diagonalization.
 Calling pw_orthon to orthonormalize bands.
 Performing subspace diagonalization.
 Calling pw_orthon to orthonormalize bands.
 Performing subspace diagonalization.
 Calling pw_orthon to orthonormalize bands.
 Performing subspace diagonalization.
 Calling pw_orthon to orthonormalize bands.
 Performing subspace diagonalization.
 Calling pw_orthon to orthonormalize bands.
 Performing subspace diagonalization.
 Calling pw_orthon to orthonormalize bands.
 Performing subspace diagonalization.
 Calling pw_orthon to orthonormalize bands.
 Performing subspace diagonalization.
 Calling pw_orthon to orthonormalize bands.
 Performing subspace diagonalization.
 Calling pw_orthon to orthonormalize bands.
 Performing subspace diagonalization.
 Calling pw_orthon to orthonormalize bands.
 Performing subspace diagonalization.
 Calling pw_orthon to orthonormalize bands.
 Performing subspace diagonalization.
 Calling pw_orthon to orthonormalize bands.
 Performing subspace diagonalization.
 Calling pw_orthon to orthonormalize bands.
 Performing subspace diagonalization.
 Calling pw_orthon to orthonormalize bands.
 Performing subspace diagonalization.
 Calling pw_orthon to orthonormalize bands.
 Performing subspace diagonalization.
 Calling pw_orthon to orthonormalize bands.
 Performing subspace diagonalization.
 Calling pw_orthon to orthonormalize bands.
 Performing subspace diagonalization.
 Calling pw_orthon to orthonormalize bands.
 Performing subspace diagonalization.
 Calling pw_orthon to orthonormalize bands.
 Performing subspace diagonalization.
 Calling pw_orthon to orthonormalize bands.
 Performing subspace diagonalization.
 Calling pw_orthon to orthonormalize bands.
 Performing subspace diagonalization.
 Calling pw_orthon to orthonormalize bands.
 Performing subspace diagonalization.
 Calling pw_orthon to orthonormalize bands.
 Performing subspace diagonalization.
 Calling pw_orthon to orthonormalize bands.
 Performing subspace diagonalization.
 Calling pw_orthon to orthonormalize bands.
 Performing subspace diagonalization.
 Calling pw_orthon to orthonormalize bands.
 Performing subspace diagonalization.
 Calling pw_orthon to orthonormalize bands.
 Performing subspace diagonalization.
 Calling pw_orthon to orthonormalize bands.
 Performing subspace diagonalization.
 Calling pw_orthon to orthonormalize bands.
 Performing subspace diagonalization.
 Calling pw_orthon to orthonormalize bands.
 Performing subspace diagonalization.
 Calling pw_orthon to orthonormalize bands.
 Performing subspace diagonalization.
 Calling pw_orthon to orthonormalize bands.
 Performing subspace diagonalization.
 Calling pw_orthon to orthonormalize bands.
 Performing subspace diagonalization.
 Calling pw_orthon to orthonormalize bands.
 Performing subspace diagonalization.
 Calling pw_orthon to orthonormalize bands.
 Performing subspace diagonalization.
 Calling pw_orthon to orthonormalize bands.
 Performing subspace diagonalization.
 Calling pw_orthon to orthonormalize bands.
 Performing subspace diagonalization.
 Calling pw_orthon to orthonormalize bands.
 Performing subspace diagonalization.
 Calling pw_orthon to orthonormalize bands.
 Performing subspace diagonalization.
 Calling pw_orthon to orthonormalize bands.
 Performing subspace diagonalization.
 Calling pw_orthon to orthonormalize bands.
 Performing subspace diagonalization.
 Calling pw_orthon to orthonormalize bands.
 Performing subspace diagonalization.
 Calling pw_orthon to orthonormalize bands.
 Performing subspace diagonalization.
 Calling pw_orthon to orthonormalize bands.
 Performing subspace diagonalization.
 Calling pw_orthon to orthonormalize bands.
 Performing subspace diagonalization.
 Calling pw_orthon to orthonormalize bands.
 Performing subspace diagonalization.
 Calling pw_orthon to orthonormalize bands.
 Performing subspace diagonalization.
 Calling pw_orthon to orthonormalize bands.
 Performing subspace diagonalization.
 Calling pw_orthon to orthonormalize bands.
 Performing subspace diagonalization.
 Calling pw_orthon to orthonormalize bands.
 Performing subspace diagonalization.
 Calling pw_orthon to orthonormalize bands.
 Performing subspace diagonalization.
 Calling pw_orthon to orthonormalize bands.
 Performing subspace diagonalization.
 Calling pw_orthon to orthonormalize bands.
 Performing subspace diagonalization.
 Calling pw_orthon to orthonormalize bands.
 Performing subspace diagonalization.
 Calling pw_orthon to orthonormalize bands.
 Performing subspace diagonalization.
 Calling pw_orthon to orthonormalize bands.
 Performing subspace diagonalization.
 Calling pw_orthon to orthonormalize bands.
 Performing subspace diagonalization.
 Calling pw_orthon to orthonormalize bands.
 Performing subspace diagonalization.
 Calling pw_orthon to orthonormalize bands.
 Performing subspace diagonalization.
 Calling pw_orthon to orthonormalize bands.
 Performing subspace diagonalization.
 Calling pw_orthon to orthonormalize bands.
 Performing subspace diagonalization.
 Calling pw_orthon to orthonormalize bands.
 Performing subspace diagonalization.
 Calling pw_orthon to orthonormalize bands.
 Performing subspace diagonalization.
 Calling pw_orthon to orthonormalize bands.
 Performing subspace diagonalization.
 Calling pw_orthon to orthonormalize bands.
 Performing subspace diagonalization.
 Calling pw_orthon to orthonormalize bands.
 Performing subspace diagonalization.
 Calling pw_orthon to orthonormalize bands.
 Performing subspace diagonalization.
 Calling pw_orthon to orthonormalize bands.
 Performing subspace diagonalization.
 Calling pw_orthon to orthonormalize bands.
 Performing subspace diagonalization.
 Calling pw_orthon to orthonormalize bands.
 Performing subspace diagonalization.
 Calling pw_orthon to orthonormalize bands.
 Performing subspace diagonalization.
 Calling pw_orthon to orthonormalize bands.
 Performing subspace diagonalization.
 Calling pw_orthon to orthonormalize bands.
 Performing subspace diagonalization.
 Calling pw_orthon to orthonormalize bands.
 Performing subspace diagonalization.
 Calling pw_orthon to orthonormalize bands.
 Performing subspace diagonalization.
 Calling pw_orthon to orthonormalize bands.
 Performing subspace diagonalization.
 Calling pw_orthon to orthonormalize bands.
 Performing subspace diagonalization.
 Calling pw_orthon to orthonormalize bands.
 Performing subspace diagonalization.
 Calling pw_orthon to orthonormalize bands.
 Performing subspace diagonalization.
 Calling pw_orthon to orthonormalize bands.
 Performing subspace diagonalization.
 Calling pw_orthon to orthonormalize bands.
 Performing subspace diagonalization.
 Calling pw_orthon to orthonormalize bands.
 Performing subspace diagonalization.
 Calling pw_orthon to orthonormalize bands.
 Performing subspace diagonalization.
 Calling pw_orthon to orthonormalize bands.
 Performing subspace diagonalization.
 Calling pw_orthon to orthonormalize bands.
 Performing subspace diagonalization.
 Calling pw_orthon to orthonormalize bands.
 Performing subspace diagonalization.
 Calling pw_orthon to orthonormalize bands.
 Performing subspace diagonalization.
 Calling pw_orthon to orthonormalize bands.
 Performing subspace diagonalization.
 Calling pw_orthon to orthonormalize bands.
 Performing subspace diagonalization.
 Calling pw_orthon to orthonormalize bands.
 Performing subspace diagonalization.
 Calling pw_orthon to orthonormalize bands.
 Performing subspace diagonalization.
 Calling pw_orthon to orthonormalize bands.
 Performing subspace diagonalization.
 Calling pw_orthon to orthonormalize bands.
 Performing subspace diagonalization.
 Calling pw_orthon to orthonormalize bands.
 Performing subspace diagonalization.
 Calling pw_orthon to orthonormalize bands.
 Performing subspace diagonalization.
 Calling pw_orthon to orthonormalize bands.
 Performing subspace diagonalization.
 Calling pw_orthon to orthonormalize bands.
 Performing subspace diagonalization.
 Calling pw_orthon to orthonormalize bands.
 Performing subspace diagonalization.
 Calling pw_orthon to orthonormalize bands.
 Performing subspace diagonalization.
 Calling pw_orthon to orthonormalize bands.
 Performing subspace diagonalization.
 Calling pw_orthon to orthonormalize bands.
 Performing subspace diagonalization.
 Calling pw_orthon to orthonormalize bands.
 Performing subspace diagonalization.
 Calling pw_orthon to orthonormalize bands.
 Performing subspace diagonalization.
 Calling pw_orthon to orthonormalize bands.
 Performing subspace diagonalization.
 Calling pw_orthon to orthonormalize bands.
 Performing subspace diagonalization.
 Calling pw_orthon to orthonormalize bands.
 Performing subspace diagonalization.
 Calling pw_orthon to orthonormalize bands.
 Performing subspace diagonalization.
 Calling pw_orthon to orthonormalize bands.
 Performing subspace diagonalization.
 Calling pw_orthon to orthonormalize bands.
 Performing subspace diagonalization.
 Calling pw_orthon to orthonormalize bands.
 Performing subspace diagonalization.
 Calling pw_orthon to orthonormalize bands.
 Performing subspace diagonalization.
 Calling pw_orthon to orthonormalize bands.
 Performing subspace diagonalization.
 Calling pw_orthon to orthonormalize bands.
 Performing subspace diagonalization.
 Calling pw_orthon to orthonormalize bands.
 Performing subspace diagonalization.
 Calling pw_orthon to orthonormalize bands.
 Performing subspace diagonalization.
 Calling pw_orthon to orthonormalize bands.
 Performing subspace diagonalization.
 Calling pw_orthon to orthonormalize bands.
 Performing subspace diagonalization.
 Calling pw_orthon to orthonormalize bands.
 Performing subspace diagonalization.
 Calling pw_orthon to orthonormalize bands.
 Performing subspace diagonalization.
 Calling pw_orthon to orthonormalize bands.
 Performing subspace diagonalization.
 Calling pw_orthon to orthonormalize bands.
 Performing subspace diagonalization.
 Calling pw_orthon to orthonormalize bands.
 Performing subspace diagonalization.
 Calling pw_orthon to orthonormalize bands.
 Performing subspace diagonalization.
 Calling pw_orthon to orthonormalize bands.
 Performing subspace diagonalization.
 Calling pw_orthon to orthonormalize bands.
 Performing subspace diagonalization.
 Calling pw_orthon to orthonormalize bands.
 Performing subspace diagonalization.
 Calling pw_orthon to orthonormalize bands.
 Performing subspace diagonalization.
 Calling pw_orthon to orthonormalize bands.
 Performing subspace diagonalization.
 Calling pw_orthon to orthonormalize bands.
 Performing subspace diagonalization.
 Calling pw_orthon to orthonormalize bands.
 Performing subspace diagonalization.
 Calling pw_orthon to orthonormalize bands.
 Performing subspace diagonalization.
 Calling pw_orthon to orthonormalize bands.
 Performing subspace diagonalization.
 Calling pw_orthon to orthonormalize bands.
 Performing subspace diagonalization.
 Calling pw_orthon to orthonormalize bands.
 Performing subspace diagonalization.
 Calling pw_orthon to orthonormalize bands.
 Performing subspace diagonalization.
 Calling pw_orthon to orthonormalize bands.
 Performing subspace diagonalization.
 Calling pw_orthon to orthonormalize bands.
 Performing subspace diagonalization.
 Calling pw_orthon to orthonormalize bands.
 Performing subspace diagonalization.
 Calling pw_orthon to orthonormalize bands.
 Performing subspace diagonalization.
 Calling pw_orthon to orthonormalize bands.
 Performing subspace diagonalization.
 Calling pw_orthon to orthonormalize bands.
 Performing subspace diagonalization.
 Calling pw_orthon to orthonormalize bands.
 Performing subspace diagonalization.
 Calling pw_orthon to orthonormalize bands.
 Performing subspace diagonalization.
 Calling pw_orthon to orthonormalize bands.
 Performing subspace diagonalization.
 Calling pw_orthon to orthonormalize bands.
 Performing subspace diagonalization.
 Calling pw_orthon to orthonormalize bands.
 Performing subspace diagonalization.
 Calling pw_orthon to orthonormalize bands.
 Performing subspace diagonalization.
 Calling pw_orthon to orthonormalize bands.
 Performing subspace diagonalization.
 Calling pw_orthon to orthonormalize bands.
 Performing subspace diagonalization.
 Calling pw_orthon to orthonormalize bands.
 Performing subspace diagonalization.
 Calling pw_orthon to orthonormalize bands.
 Performing subspace diagonalization.
 Calling pw_orthon to orthonormalize bands.
 Performing subspace diagonalization.
 Calling pw_orthon to orthonormalize bands.
 Performing subspace diagonalization.
 Calling pw_orthon to orthonormalize bands.
 Performing subspace diagonalization.
 Calling pw_orthon to orthonormalize bands.
 Performing subspace diagonalization.
 Calling pw_orthon to orthonormalize bands.
 Performing subspace diagonalization.
 Calling pw_orthon to orthonormalize bands.
 Performing subspace diagonalization.
 Calling pw_orthon to orthonormalize bands.
 Performing subspace diagonalization.
 Calling pw_orthon to orthonormalize bands.
 Performing subspace diagonalization.
 Calling pw_orthon to orthonormalize bands.
 Performing subspace diagonalization.
 Calling pw_orthon to orthonormalize bands.
 Performing subspace diagonalization.
 Calling pw_orthon to orthonormalize bands.
 Performing subspace diagonalization.
 Calling pw_orthon to orthonormalize bands.
 Performing subspace diagonalization.
 Calling pw_orthon to orthonormalize bands.
 Performing subspace diagonalization.
 Calling pw_orthon to orthonormalize bands.
 Performing subspace diagonalization.
 Calling pw_orthon to orthonormalize bands.
 Performing subspace diagonalization.
 Calling pw_orthon to orthonormalize bands.
 Performing subspace diagonalization.
 Calling pw_orthon to orthonormalize bands.
 Performing subspace diagonalization.
 Calling pw_orthon to orthonormalize bands.
 Performing subspace diagonalization.
 Calling pw_orthon to orthonormalize bands.
 Performing subspace diagonalization.
 Calling pw_orthon to orthonormalize bands.
 Performing subspace diagonalization.
 Calling pw_orthon to orthonormalize bands.
 Performing subspace diagonalization.
 Calling pw_orthon to orthonormalize bands.
[...]
  19.02333   19.02333   19.23684   19.23684   19.36449   19.36449   19.36449   19.36449
  19.91214   19.91214   20.22086   20.22086   20.22086   20.22086   20.22086   20.22086
  20.22086   20.22086   20.54749   20.54749   20.54749   20.54749   20.54749   20.54749
  20.54749   20.54749   23.26574   23.26574   24.59631   24.59631   24.59631   24.59631
 Total charge density [el/Bohr^3]
)     Maximum=    9.3207E-01  at reduced coord.    0.4667    0.4667    0.5500
)Next maximum=    9.3207E-01  at reduced coord.    0.4667    0.4500    0.5333
)     Minimum=    3.9246E-03  at reduced coord.    0.5000    0.0000    0.0000
)Next minimum=    3.9246E-03  at reduced coord.    0.0000    0.5000    0.0000
   Integrated=    2.2400E+02
 dataset: 1 , wall: 03:23:16 [hours] , cpu: 03:23:16 [hours] <<< TIME
 
== END DATASET(S) ==============================================================
================================================================================
  
 -outvars: echo values of variables after computation  --------
 
 These variables are accessible in NetCDF format (trf2_1o_OUT.nc)

-          iomode           3
            acell      1.1950109323E+01  1.1950109323E+01  1.1950109323E+01 Bohr
              amu      9.59400000E+01
          chkprim           0
             ecut      3.00000000E+01 Hartree
           enunit           1
-          fftalg         312
           getden          -1
             iscf          -2
           istwfk        1    0    0    0    0    0    0    0    0    0
                         0    0    0    0    0    0    0    0    0    0
                         0    0    0    0    0    0    0    0    0    0
                         0    0    0    0    0    0    0    0    0    0
                         0    0    0    0    0    0    0    0    0    0
                         0    0    0    0    0    0    0    0    0    0
                         0    0    0    0    0    0    0    0    0    0
                         0    0    0    0    0    0    0    0    0    0
                         0    0    0    0    0    0    0    0    0    0
                         0    0    0    0    0    0    0    0    0    0
                         0    0    0    0    0    0    0    0    0    0
                         0    0    0    0    0    0    0    0    0    0
                         0    0    0    0    0    0    0    0    0    0
                         0    0    0    0    0    0    0    0    0    0
                         0    0    0    0    0    1
              ixc          11
              kpt      0.00000000E+00  0.00000000E+00  0.00000000E+00
                       0.00000000E+00  3.17460300E-02  0.00000000E+00
                       0.00000000E+00  6.34920600E-02  0.00000000E+00
                       0.00000000E+00  9.52381000E-02  0.00000000E+00
                       0.00000000E+00  1.26984130E-01  0.00000000E+00
                       0.00000000E+00  1.58730160E-01  0.00000000E+00
                       0.00000000E+00  1.90476190E-01  0.00000000E+00
                       0.00000000E+00  2.22222220E-01  0.00000000E+00
                       0.00000000E+00  2.53968250E-01  0.00000000E+00
                       0.00000000E+00  2.85714290E-01  0.00000000E+00
                       0.00000000E+00  3.17460320E-01  0.00000000E+00
                       0.00000000E+00  3.49206350E-01  0.00000000E+00
                       0.00000000E+00  3.80952380E-01  0.00000000E+00
                       0.00000000E+00  4.12698410E-01  0.00000000E+00
                       0.00000000E+00  4.44444440E-01  0.00000000E+00
                       0.00000000E+00  4.76190480E-01  0.00000000E+00
                       0.00000000E+00 -4.92063490E-01  0.00000000E+00
                       0.00000000E+00 -4.60317460E-01  0.00000000E+00
                       0.00000000E+00 -4.28571430E-01  0.00000000E+00
                       0.00000000E+00 -3.96825400E-01  0.00000000E+00
                       0.00000000E+00 -3.65079370E-01  0.00000000E+00
                       0.00000000E+00 -3.33333330E-01  0.00000000E+00
                       0.00000000E+00 -3.01587300E-01  0.00000000E+00
                       0.00000000E+00 -2.69841270E-01  0.00000000E+00
                       0.00000000E+00 -2.38095240E-01  0.00000000E+00
                       0.00000000E+00 -2.06349210E-01  0.00000000E+00
                       0.00000000E+00 -1.74603170E-01  0.00000000E+00
                       0.00000000E+00 -1.42857140E-01  0.00000000E+00
                       0.00000000E+00 -1.11111110E-01  0.00000000E+00
                       0.00000000E+00 -7.93650800E-02  0.00000000E+00
                       0.00000000E+00 -4.76190500E-02  0.00000000E+00
                       0.00000000E+00 -1.58730200E-02  0.00000000E+00
                       2.22222200E-02 -2.22222200E-02  0.00000000E+00
                      -2.22222200E-02 -2.22222200E-02  0.00000000E+00
                       4.44444400E-02 -4.44444400E-02  0.00000000E+00
                      -4.44444400E-02 -4.44444400E-02  0.00000000E+00
                       6.66666700E-02 -6.66666700E-02  0.00000000E+00
                      -6.66666700E-02 -6.66666700E-02  0.00000000E+00
                       8.88888900E-02 -8.88888900E-02  0.00000000E+00
                      -8.88888900E-02 -8.88888900E-02  0.00000000E+00
                       1.11111110E-01 -1.11111110E-01  0.00000000E+00
                      -1.11111110E-01 -1.11111110E-01  0.00000000E+00
                       1.33333330E-01 -1.33333330E-01  0.00000000E+00
                      -1.33333330E-01 -1.33333330E-01  0.00000000E+00
                       1.55555560E-01 -1.55555560E-01  0.00000000E+00
                      -1.55555560E-01 -1.55555560E-01  0.00000000E+00
                       1.77777780E-01 -1.77777780E-01  0.00000000E+00
                      -1.77777780E-01 -1.77777780E-01  0.00000000E+00
                       2.00000000E-01 -2.00000000E-01  0.00000000E+00
                      -2.00000000E-01 -2.00000000E-01  0.00000000E+00
                       2.22222220E-01 -2.22222220E-01  0.00000000E+00
                      -2.22222220E-01 -2.22222220E-01  0.00000000E+00
                       2.44444440E-01 -2.44444440E-01  0.00000000E+00
                      -2.44444440E-01 -2.44444440E-01  0.00000000E+00
                       2.66666670E-01 -2.66666670E-01  0.00000000E+00
                      -2.66666670E-01 -2.66666670E-01  0.00000000E+00
                       2.88888890E-01 -2.88888890E-01  0.00000000E+00
                      -2.88888890E-01 -2.88888890E-01  0.00000000E+00
                       3.11111110E-01 -3.11111110E-01  0.00000000E+00
                      -3.11111110E-01 -3.11111110E-01  0.00000000E+00
                       3.33333330E-01 -3.33333330E-01  0.00000000E+00
                      -3.33333330E-01 -3.33333330E-01  0.00000000E+00
                       3.55555560E-01 -3.55555560E-01  0.00000000E+00
                      -3.55555560E-01 -3.55555560E-01  0.00000000E+00
                       3.77777780E-01 -3.77777780E-01  0.00000000E+00
                      -3.77777780E-01 -3.77777780E-01  0.00000000E+00
                       4.00000000E-01 -4.00000000E-01  0.00000000E+00
                      -4.00000000E-01 -4.00000000E-01  0.00000000E+00
                       4.22222220E-01 -4.22222220E-01  0.00000000E+00
                      -4.22222220E-01 -4.22222220E-01  0.00000000E+00
                       4.44444440E-01 -4.44444440E-01  0.00000000E+00
                      -4.44444440E-01 -4.44444440E-01  0.00000000E+00
                       4.66666670E-01 -4.66666670E-01  0.00000000E+00
                      -4.66666670E-01 -4.66666670E-01  0.00000000E+00
                       4.88888890E-01 -4.88888890E-01  0.00000000E+00
                      -4.88888890E-01 -4.88888890E-01  0.00000000E+00
                       1.81818200E-02  1.81818200E-02  1.81818200E-02
                       1.81818200E-02 -1.81818200E-02  1.81818200E-02
                       3.63636400E-02  3.63636400E-02  3.63636400E-02
                       3.63636400E-02 -3.63636400E-02  3.63636400E-02
                       5.45454500E-02  5.45454500E-02  5.45454500E-02
                       5.45454500E-02 -5.45454500E-02  5.45454500E-02
                       7.27272700E-02  7.27272700E-02  7.27272700E-02
                       7.27272700E-02 -7.27272700E-02  7.27272700E-02
                       9.09090900E-02  9.09090900E-02  9.09090900E-02
                       9.09090900E-02 -9.09090900E-02  9.09090900E-02
                       1.09090910E-01  1.09090910E-01  1.09090910E-01
                       1.09090910E-01 -1.09090910E-01  1.09090910E-01
                       1.27272730E-01  1.27272730E-01  1.27272730E-01
                       1.27272730E-01 -1.27272730E-01  1.27272730E-01
                       1.45454550E-01  1.45454550E-01  1.45454550E-01
                       1.45454550E-01 -1.45454550E-01  1.45454550E-01
                       1.63636360E-01  1.63636360E-01  1.63636360E-01
                       1.63636360E-01 -1.63636360E-01  1.63636360E-01
                       1.81818180E-01  1.81818180E-01  1.81818180E-01
                       1.81818180E-01 -1.81818180E-01  1.81818180E-01
                       2.00000000E-01  2.00000000E-01  2.00000000E-01
                       2.00000000E-01 -2.00000000E-01  2.00000000E-01
                       2.18181820E-01  2.18181820E-01  2.18181820E-01
                       2.18181820E-01 -2.18181820E-01  2.18181820E-01
                       2.36363640E-01  2.36363640E-01  2.36363640E-01
                       2.36363640E-01 -2.36363640E-01  2.36363640E-01
                       2.54545450E-01  2.54545450E-01  2.54545450E-01
                       2.54545450E-01 -2.54545450E-01  2.54545450E-01
                       2.72727270E-01  2.72727270E-01  2.72727270E-01
                       2.72727270E-01 -2.72727270E-01  2.72727270E-01
                       2.90909090E-01  2.90909090E-01  2.90909090E-01
                       2.90909090E-01 -2.90909090E-01  2.90909090E-01
                       3.09090910E-01  3.09090910E-01  3.09090910E-01
                       3.09090910E-01 -3.09090910E-01  3.09090910E-01
                       3.27272730E-01  3.27272730E-01  3.27272730E-01
                       3.27272730E-01 -3.27272730E-01  3.27272730E-01
                       3.45454550E-01  3.45454550E-01  3.45454550E-01
                       3.45454550E-01 -3.45454550E-01  3.45454550E-01
                       3.63636360E-01  3.63636360E-01  3.63636360E-01
                       3.63636360E-01 -3.63636360E-01  3.63636360E-01
                       3.81818180E-01  3.81818180E-01  3.81818180E-01
                       3.81818180E-01 -3.81818180E-01  3.81818180E-01
                       4.00000000E-01  4.00000000E-01  4.00000000E-01
                       4.00000000E-01 -4.00000000E-01  4.00000000E-01
                       4.18181820E-01  4.18181820E-01  4.18181820E-01
                       4.18181820E-01 -4.18181820E-01  4.18181820E-01
                       4.36363640E-01  4.36363640E-01  4.36363640E-01
                       4.36363640E-01 -4.36363640E-01  4.36363640E-01
                       4.54545450E-01  4.54545450E-01  4.54545450E-01
                       4.54545450E-01 -4.54545450E-01  4.54545450E-01
                       4.72727270E-01  4.72727270E-01  4.72727270E-01
                       4.72727270E-01 -4.72727270E-01  4.72727270E-01
                       4.90909090E-01  4.90909090E-01  4.90909090E-01
                       4.90909090E-01 -4.90909090E-01  4.90909090E-01
                       0.00000000E+00  0.00000000E+00 -3.12500000E-02
                       0.00000000E+00  0.00000000E+00 -6.25000000E-02
                       0.00000000E+00  0.00000000E+00 -9.37500000E-02
                       0.00000000E+00  0.00000000E+00 -1.25000000E-01
                       0.00000000E+00  0.00000000E+00 -1.56250000E-01
                       0.00000000E+00  0.00000000E+00 -1.87500000E-01
                       0.00000000E+00  0.00000000E+00 -2.18750000E-01
                       0.00000000E+00  0.00000000E+00 -2.50000000E-01
                       0.00000000E+00  0.00000000E+00 -2.81250000E-01
                       0.00000000E+00  0.00000000E+00 -3.12500000E-01
                       0.00000000E+00  0.00000000E+00 -3.43750000E-01
                       0.00000000E+00  0.00000000E+00 -3.75000000E-01
                       0.00000000E+00  0.00000000E+00 -4.06250000E-01
                       0.00000000E+00  0.00000000E+00 -4.37500000E-01
                       0.00000000E+00  0.00000000E+00 -4.68750000E-01
                       0.00000000E+00  0.00000000E+00  5.00000000E-01
           kptopt           0
P           mkmem         146
            natom          16
            nband         160
           nbdbuf           2
            ngfft          60      60      60
             nkpt         146
            nstep          50
             nsym           1
           ntypat           1
           occopt           7
           prtvol           2
          spgroup           1
           tolwfr      1.00000000E-12
           tsmear      5.00000000E-03 Hartree
            typat      1  1  1  1  1  1  1  1  1  1  1  1  1  1  1  1
           xangst      0.0000000000E+00  0.0000000000E+00  0.0000000000E+00
                       0.0000000000E+00  0.0000000000E+00  3.1618627471E+00
                       0.0000000000E+00  3.1618627471E+00  0.0000000000E+00
                       0.0000000000E+00  3.1618627471E+00  3.1618627471E+00
                       3.1618627471E+00  0.0000000000E+00  0.0000000000E+00
                       3.1618627471E+00  0.0000000000E+00  3.1618627471E+00
                       3.1618627471E+00  3.1618627471E+00  0.0000000000E+00
                       3.1618627471E+00  3.1618627471E+00  3.1618627471E+00
                       1.5809313735E+00  1.5809313735E+00  1.5809313735E+00
                       1.5809313735E+00  1.5809313735E+00  4.7427941206E+00
                       1.5809313735E+00  4.7427941206E+00  1.5809313735E+00
                       1.5809313735E+00  4.7427941206E+00  4.7427941206E+00
                       4.7427941206E+00  1.5809313735E+00  1.5809313735E+00
                       4.7427941206E+00  1.5809313735E+00  4.7427941206E+00
                       4.7427941206E+00  4.7427941206E+00  1.5809313735E+00
                       4.7427941206E+00  4.7427941206E+00  4.7427941206E+00
            xcart      0.0000000000E+00  0.0000000000E+00  0.0000000000E+00
                       0.0000000000E+00  0.0000000000E+00  5.9750546617E+00
                       0.0000000000E+00  5.9750546617E+00  0.0000000000E+00
                       0.0000000000E+00  5.9750546617E+00  5.9750546617E+00
                       5.9750546617E+00  0.0000000000E+00  0.0000000000E+00
                       5.9750546617E+00  0.0000000000E+00  5.9750546617E+00
                       5.9750546617E+00  5.9750546617E+00  0.0000000000E+00
                       5.9750546617E+00  5.9750546617E+00  5.9750546617E+00
                       2.9875273308E+00  2.9875273308E+00  2.9875273308E+00
                       2.9875273308E+00  2.9875273308E+00  8.9625819925E+00
                       2.9875273308E+00  8.9625819925E+00  2.9875273308E+00
                       2.9875273308E+00  8.9625819925E+00  8.9625819925E+00
                       8.9625819925E+00  2.9875273308E+00  2.9875273308E+00
                       8.9625819925E+00  2.9875273308E+00  8.9625819925E+00
                       8.9625819925E+00  8.9625819925E+00  2.9875273308E+00
                       8.9625819925E+00  8.9625819925E+00  8.9625819925E+00
             xred      0.0000000000E+00  0.0000000000E+00  0.0000000000E+00
                       0.0000000000E+00  0.0000000000E+00  5.0000000000E-01
                       0.0000000000E+00  5.0000000000E-01  0.0000000000E+00
                       0.0000000000E+00  5.0000000000E-01  5.0000000000E-01
                       5.0000000000E-01  0.0000000000E+00  0.0000000000E+00
                       5.0000000000E-01  0.0000000000E+00  5.0000000000E-01
                       5.0000000000E-01  5.0000000000E-01  0.0000000000E+00
                       5.0000000000E-01  5.0000000000E-01  5.0000000000E-01
                       2.5000000000E-01  2.5000000000E-01  2.5000000000E-01
                       2.5000000000E-01  2.5000000000E-01  7.5000000000E-01
                       2.5000000000E-01  7.5000000000E-01  2.5000000000E-01
                       2.5000000000E-01  7.5000000000E-01  7.5000000000E-01
                       7.5000000000E-01  2.5000000000E-01  2.5000000000E-01
                       7.5000000000E-01  2.5000000000E-01  7.5000000000E-01
                       7.5000000000E-01  7.5000000000E-01  2.5000000000E-01
                       7.5000000000E-01  7.5000000000E-01  7.5000000000E-01
            znucl       42.00000
 
================================================================================
 
--- !COMMENT
src_file: m_symfind.F90
src_line: 833
message: |
    The tolerance on symmetries =   1.000E-05 is bigger than 1.0e-8.
    In order to avoid spurious effects, the atomic coordinates have been
    symmetrized before storing them in the dataset internal variable.
    So, do not be surprised by the fact that your input variables (xcart, xred, ...)
    do not correspond exactly to the ones echoed by ABINIT, the latter being used to do the calculations.
    This is not a problem per se.
    Still, in order to avoid this symmetrization (e.g. for specific debugging/development), decrease tolsym to 1.0e-8 or lower,
    or (much preferred) use input primitive vectors that are accurate to better than 1.0e-8.
    This message will only be printed once, even if there are other datasets where tolsym is bigger than 1.0e-8.
...
 
 
--- !COMMENT
src_file: m_symtk.F90
src_line: 811
message: |
    According to the symmetry finder, the unit cell is
    not primitive, with multiplicity= 16.
    This is allowed, as the current chkprim is 0.
...
 
 
 The spacegroup number, the magnetic point group, and/or the number of symmetries
 have changed between the initial recognition based on the input file
 and a postprocessing based on the final acell, rprim, and xred.
 These modifications are detailed below.
 The updated tnons, symrel or symrel have NOT been reported in the final echo of variables after computation.
 Such change of spacegroup, or magnetic point group might happen in several cases.
 (1) If spgroup (+ptgroupma) defined in the input file, but the actual groups are supergroups of these; 
 (2) If symrel, tnons (+symafm) defined in the input file, while the system is more symmetric;
 (3) If the geometry has been optimized and the final structure is more symmetric than the initial one;
 (4) In case of GW of BSE calculation with inversion symmetry, as nsym has been reduced in such
       dataset, excluding the improper symmetry operations (with determinant=-1), but not in the postprocessing.
 
 Initial data. jdtset, iimage, nsym=       0       1       1
 Symmetries : space group P1 (#  1); Bravais aP (primitive triclinic)
 Final data.   jdtset, iimage, nsym=       0       1     768
 Symmetries : the unit cell is not primitive
 
================================================================================
  
 Proc.   0 individual time (sec): cpu=      12197.6  wall=      12197.6
 
 Calculation completed.
.Delivered  11 WARNINGs and   7 COMMENTs to log file.

--- !FinalSummary
program: abinit
version: 10.4.5
start_datetime: Tue Mar 10 11:44:04 2026
end_datetime: Tue Mar 10 15:07:21 2026
overall_cpu_time:       12197.6
overall_wall_time:       12197.6
exit_requested_by_user: no 
timelimit: 0
pseudos: 
    Mo  : 228091cb5782e08cb8d68936b3c7e57b
usepaw: 0
mpi_procs: 1
omp_threads: 64
num_warnings: 11
num_comments: 7
...
